LAMMPS (12 Dec 2018)
#cuzr quench

units           metal
boundary        p p p
atom_style      atomic
atom_modify map array
variable        myT equal  300
shell           mkdir  dump


read_data	data.Substrate
  orthogonal box = (-49.9863 -49.9863 -19.9973) to (49.9863 49.9863 109.997)
  2 by 2 by 4 MPI processor grid
  reading atoms ...
  12500 atoms
  reading velocities ...
  12500 velocities
pair_style      eam/alloy
pair_coeff      * * ZrCu.lammps.eam Zr Cu

region          bottom block INF INF INF INF INF -8  units box
group           bottomLayer region bottom
1261 atoms in group bottomLayer
thermo          100
thermo_style    custom step pe press pxx pyy pzz lx ly lz vol temp


variable	BoxL  equal  lx
variable       dispX  equal  random(0,${BoxL},475414)
variable       dispX  equal  random(0,99.9725615122585,475414)
variable       dispY  equal  random(0,${BoxL},475414)
variable       dispY  equal  random(0,99.9725615122585,475414)

## --------------  deposit loop -----------------------
variable a loop 10
label loop

group 	       myG  id <= 0
0 atoms in group myG
read_data      myNanoP.txt add append group myG
  orthogonal box = (-49.9863 -49.9863 -19.9973) to (49.9863 49.9863 109.997)
  2 by 2 by 4 MPI processor grid
  reading atoms ...
  884 atoms
  reading velocities ...
  884 velocities
group          subG subtract all myG
12500 atoms in group subG


variable       dxx   equal  "v_dispX-0.5*v_BoxL"
variable       dyy   equal  "v_dispY-0.5*v_BoxL"
variable       dzz   equal  "v_a*3+50"
print "${dzz}"
53

displace_atoms myG move ${dxx} ${dyy} ${dzz} units box               #make it uniform
displace_atoms myG move -46.2086513071489 ${dyy} ${dzz} units box               
displace_atoms myG move -46.2086513071489 10.6927909340182 ${dzz} units box               
displace_atoms myG move -46.2086513071489 10.6927909340182 53 units box               
#displace_atoms myG move 0 0  50 units box               #make it uniform
reset_ids
Resetting atom IDs ...
Neighbor list info ...
  update every 1 steps, delay 10 steps, check yes
  max neighbors/atom: 2000, page size: 100000
  master list distance cutoff = 8.5
  ghost atom cutoff = 8.5
  binsize = 4.25, bins = 24 24 31
  1 neighbor lists, perpetual/occasional/extra = 1 0 0
  (1) pair eam/alloy, perpetual
      attributes: half, newton on
      pair build: half/bin/atomonly/newton
      stencil: half/bin/3d/newton
      bin: standard

velocity        myG create 300 74657362 mom yes rot yes
velocity        myG set 0 0 -2 units box

velocity        subG create 300 74657362 mom yes rot yes
set             group bottomLayer vz  0
  1261 settings made for vz
fix             freeze bottomLayer setforce NULL NULL 0.0

#compute myT 	subG temp
#thermo_modify 	temp myT

dump           relax all custom 500 dump/dump${a}_*.atom id type x y z
dump           relax all custom 500 dump/dump1_*.atom id type x y z
fix            1 all nve
fix            2 bottomLayer temp/berendsen 200.0 200.0 0.1
run            50000
Per MPI rank memory allocation (min/avg/max) = 0.9121 | 3.353 | 5.772 Mbytes
Step PotEng Press Pxx Pyy Pzz Lx Ly Lz Volume Temp 
       0    -58680.58   -2982.6798   -3603.7035   -3326.3885   -2017.9476    99.972562    99.972562    129.99451    1299231.9    278.64224 
     100   -58751.145   -2060.6599   -2790.1791    -2582.572   -809.22866    99.972562    99.972562    129.99451    1299231.9    316.97314 
     200   -58754.802   -2007.6363   -2749.2234   -2475.1775   -798.50795    99.972562    99.972562    129.99451    1299231.9    316.03879 
     300   -58763.037   -2011.1037    -2685.707   -2444.1445   -903.45973    99.972562    99.972562    129.99451    1299231.9    318.76707 
     400   -58765.212   -1745.2785   -2531.0512    -2246.515   -458.26944    99.972562    99.972562    129.99451    1299231.9     318.7983 
     500   -58765.244   -1210.2722   -2137.2022   -1703.4796    209.86534    99.972562    99.972562    129.99451    1299231.9    317.07403 
     600   -58779.111   -1103.8967   -2034.1133    -1651.708    374.13108    99.972562    99.972562    129.99451    1299231.9    323.78077 
     700   -58778.831   -1029.9987   -1972.0589   -1604.9363    486.99906    99.972562    99.972562    129.99451    1299231.9    322.66162 
     800   -58774.909   -690.47392   -1520.8543   -1297.5695    747.00198    99.972562    99.972562    129.99451    1299231.9    319.70241 
     900   -58779.052   -465.41289    -1408.758   -1065.0338    1077.5532    99.972562    99.972562    129.99451    1299231.9    320.92442 
    1000   -58782.984   -539.55415    -1424.774   -1055.7695    861.88109    99.972562    99.972562    129.99451    1299231.9    322.10399 
    1100   -58782.866    -482.2979   -1423.4622   -1011.9804    988.54885    99.972562    99.972562    129.99451    1299231.9    321.15593 
    1200   -58786.318   -762.83166   -1606.7947   -1319.8146    638.11435    99.972562    99.972562    129.99451    1299231.9    322.49249 
    1300   -58786.976    -1201.479   -2011.6303   -1661.5292    68.722527    99.972562    99.972562    129.99451    1299231.9    321.92186 
    1400   -58782.167   -1605.3984   -2311.5571   -2101.6297   -403.00844    99.972562    99.972562    129.99451    1299231.9    318.93268 
    1500   -58784.786   -1818.2884   -2567.2636   -2232.7439   -654.85774    99.972562    99.972562    129.99451    1299231.9    320.13825 
    1600   -58777.651   -1974.1056   -2656.2585   -2383.7415   -882.31668    99.972562    99.972562    129.99451    1299231.9    315.86469 
    1700   -58782.596   -2022.6267   -2620.1458   -2494.9668   -952.76753    99.972562    99.972562    129.99451    1299231.9    318.00474 
    1800   -58785.561   -1998.6764   -2661.8939   -2513.5063   -820.62896    99.972562    99.972562    129.99451    1299231.9    319.37059 
    1900    -58782.55   -2093.5745   -2824.6869   -2449.1172   -1006.9193    99.972562    99.972562    129.99451    1299231.9    316.83724 
    2000   -58788.242   -2097.9355   -2795.7584   -2491.1451    -1006.903    99.972562    99.972562    129.99451    1299231.9    319.45341 
    2100   -58784.733   -2028.8382   -2783.5311   -2523.3687   -779.61495    99.972562    99.972562    129.99451    1299231.9    317.04793 
    2200   -58787.674   -1853.0897   -2703.7379   -2378.3702   -477.16096    99.972562    99.972562    129.99451    1299231.9    318.32934 
    2300   -58793.827    -1513.057    -2311.813   -2103.0321   -124.32598    99.972562    99.972562    129.99451    1299231.9    321.86098 
    2400   -58795.685   -1146.7853   -1952.4103   -1705.3464    217.40077    99.972562    99.972562    129.99451    1299231.9    322.43412 
    2500   -58795.496   -924.59379   -1759.9464   -1471.0887    457.25373    99.972562    99.972562    129.99451    1299231.9    321.95025 
    2600   -58795.069   -745.87738   -1576.4266     -1384.12    722.91439    99.972562    99.972562    129.99451    1299231.9    320.57224 
    2700   -58799.603   -775.44356   -1663.1503   -1393.5402    730.35977    99.972562    99.972562    129.99451    1299231.9    322.15582 
    2800   -58800.736   -768.42625   -1637.6943   -1409.0876    741.50311    99.972562    99.972562    129.99451    1299231.9    322.16723 
    2900    -58799.53   -943.70916     -1787.72   -1583.0582    539.65065    99.972562    99.972562    129.99451    1299231.9    320.82458 
    3000   -58794.041   -1045.8322   -1860.4474   -1640.9575    363.90827    99.972562    99.972562    129.99451    1299231.9     317.2484 
    3100   -58801.035   -1138.7136   -1931.6521   -1682.4639    197.97523    99.972562    99.972562    129.99451    1299231.9    320.70457 
    3200   -58794.517    -1357.367    -2136.588   -1844.6055   -90.907369    99.972562    99.972562    129.99451    1299231.9    316.28281 
    3300   -58801.177    -1627.009   -2391.7995   -2096.7125    -392.5152    99.972562    99.972562    129.99451    1299231.9    319.58646 
    3400   -58804.828   -1883.7653   -2580.1293   -2432.4839   -638.68289    99.972562    99.972562    129.99451    1299231.9     321.3023 
    3500   -58794.366   -2037.3007   -2671.6118   -2568.8751   -871.41519    99.972562    99.972562    129.99451    1299231.9     315.1432 
    3600    -58802.43    -2200.119   -2936.0222   -2673.3845   -990.95036    99.972562    99.972562    129.99451    1299231.9    319.41643 
    3700   -58795.841   -2113.5125    -2789.733   -2629.0255   -921.77891    99.972562    99.972562    129.99451    1299231.9    315.51603 
    3800   -58804.815   -1990.6934   -2712.0951   -2482.2546   -777.73052    99.972562    99.972562    129.99451    1299231.9    320.30866 
    3900   -58802.665   -1817.5613    -2539.675   -2345.5996   -567.40932    99.972562    99.972562    129.99451    1299231.9    318.54363 
    4000   -58805.057   -1621.1461   -2363.4051   -2229.6847    -270.3483    99.972562    99.972562    129.99451    1299231.9     319.5227 
    4100   -58807.359   -1492.0413   -2312.4608    -2070.755   -92.908143    99.972562    99.972562    129.99451    1299231.9    320.59879 
    4200   -58807.665   -1369.0443   -2181.5917   -1937.1431    11.601865    99.972562    99.972562    129.99451    1299231.9    320.54755 
    4300   -58813.828   -1258.6401   -2131.3403   -1798.7521    154.17216    99.972562    99.972562    129.99451    1299231.9    323.63993 
    4400   -58808.637   -1028.1022   -1835.4005   -1637.7658    388.85978    99.972562    99.972562    129.99451    1299231.9    320.13812 
    4500   -58806.872   -795.83028    -1582.232   -1406.1767    600.91787    99.972562    99.972562    129.99451    1299231.9    317.80995 
    4600   -58814.839   -753.46534   -1618.0514   -1347.2213    704.87666    99.972562    99.972562    129.99451    1299231.9    321.18605 
    4700   -58813.645   -855.10939    -1672.047   -1429.5333    536.25215    99.972562    99.972562    129.99451    1299231.9    319.73114 
    4800    -58819.61   -1063.1787   -1877.8796   -1671.3514    359.69487    99.972562    99.972562    129.99451    1299231.9    322.36574 
    4900   -58814.072   -1309.0238   -2174.4062   -1811.6341    58.968905    99.972562    99.972562    129.99451    1299231.9    318.74449 
    5000   -58811.008   -1463.4335    -2235.431    -1990.129   -164.74049    99.972562    99.972562    129.99451    1299231.9    316.36885 
    5100    -58813.45   -1640.3185    -2386.386   -2156.8039   -377.76569    99.972562    99.972562    129.99451    1299231.9    317.33911 
    5200   -58816.262   -1799.1152   -2555.3027   -2343.1284   -498.91452    99.972562    99.972562    129.99451    1299231.9    318.78143 
    5300   -58810.654   -1912.1393   -2654.8145   -2409.3498   -672.25379    99.972562    99.972562    129.99451    1299231.9    315.18492 
    5400   -58809.324   -1957.5331   -2665.4533   -2463.9776   -743.16848    99.972562    99.972562    129.99451    1299231.9    314.01997 
    5500   -58808.157   -1946.8163   -2672.6545   -2473.3916   -694.40281    99.972562    99.972562    129.99451    1299231.9    312.94468 
    5600    -58814.54   -1965.6411   -2717.6378   -2496.9767   -682.30886    99.972562    99.972562    129.99451    1299231.9    316.20787 
    5700    -58811.17   -1836.8025   -2579.1766   -2411.1646   -520.06626    99.972562    99.972562    129.99451    1299231.9    313.38535 
    5800     -58814.5   -1689.3842   -2426.7421   -2294.2166   -347.19398    99.972562    99.972562    129.99451    1299231.9    314.50306 
    5900   -58815.794   -1509.6756   -2258.8055   -2059.9326   -210.28877    99.972562    99.972562    129.99451    1299231.9    314.67459 
    6000   -58822.062   -1366.8259   -2157.9305   -1990.9727    48.425466    99.972562    99.972562    129.99451    1299231.9    317.82442 
    6100   -58826.074   -1226.9845   -2059.9227   -1869.2206    248.18986    99.972562    99.972562    129.99451    1299231.9    319.07817 
    6200   -58828.414   -1114.8099   -1923.0578   -1711.1604    289.78851    99.972562    99.972562    129.99451    1299231.9     319.5017 
    6300   -58822.906   -1084.5554   -1903.5997   -1733.6168     383.5504    99.972562    99.972562    129.99451    1299231.9    315.80714 
    6400   -58817.352   -1077.2539   -1845.7139   -1704.1437    318.09582    99.972562    99.972562    129.99451    1299231.9    312.25893 
    6500   -58822.736   -1155.3233   -2022.1595   -1749.8676    306.05726    99.972562    99.972562    129.99451    1299231.9    314.54286 
    6600     -58826.5   -1209.2715   -2092.2895   -1747.5579     212.0329    99.972562    99.972562    129.99451    1299231.9     315.8683 
    6700   -58826.438   -1201.1328   -2049.0746   -1728.6157    174.29205    99.972562    99.972562    129.99451    1299231.9    315.38284 
    6800   -58819.703   -1301.6377   -2115.2397   -1839.2622    49.588709    99.972562    99.972562    129.99451    1299231.9    311.06383 
    6900   -58824.905   -1513.9933   -2246.1723   -2057.9335   -237.87409    99.972562    99.972562    129.99451    1299231.9    313.64891 
    7000   -58823.739   -1677.7969   -2484.1425   -2198.5637   -350.68435    99.972562    99.972562    129.99451    1299231.9    312.52674 
    7100   -58822.911   -1783.0468   -2549.5259   -2355.3378   -444.27672    99.972562    99.972562    129.99451    1299231.9    311.66867 
    7200   -58819.638   -1872.7397   -2492.9793   -2501.6917    -623.5481    99.972562    99.972562    129.99451    1299231.9    308.98413 
    7300   -58824.889    -1923.219   -2658.0084   -2441.0722   -670.57633    99.972562    99.972562    129.99451    1299231.9    311.78186 
    7400   -58817.709   -1777.4585    -2543.615   -2297.1436   -491.61682    99.972562    99.972562    129.99451    1299231.9    307.51574 
    7500   -58823.639     -1794.02   -2551.6952   -2325.7029   -504.66188    99.972562    99.972562    129.99451    1299231.9    310.24297 
    7600    -58825.17   -1666.5362   -2433.2852   -2185.5776   -380.74568    99.972562    99.972562    129.99451    1299231.9    310.76692 
    7700   -58829.893   -1597.2733   -2279.8162   -2194.2149   -317.78879    99.972562    99.972562    129.99451    1299231.9     313.4118 
    7800   -58825.919   -1477.8922   -2255.9035   -2101.7787    -75.99453    99.972562    99.972562    129.99451    1299231.9    310.38577 
    7900   -58830.932   -1300.6122   -2131.7353   -1857.4968    87.395328    99.972562    99.972562    129.99451    1299231.9    312.48867 
    8000    -58829.94   -1153.2897   -1966.7794   -1767.5469    274.45734    99.972562    99.972562    129.99451    1299231.9    311.71608 
    8100   -58832.954   -1033.2528   -1864.4897    -1669.016    433.74741    99.972562    99.972562    129.99451    1299231.9     312.8381 
    8200   -58830.369   -1094.2703   -1817.8073   -1699.8217    234.81807    99.972562    99.972562    129.99451    1299231.9    310.83233 
    8300   -58832.046    -1111.198    -1861.528    -1682.525    210.45901    99.972562    99.972562    129.99451    1299231.9    311.33615 
    8400   -58828.459   -1100.4189   -1881.5567   -1730.0316    310.33169    99.972562    99.972562    129.99451    1299231.9    309.18176 
    8500   -58828.207   -1252.3123   -2068.4186   -1792.5043    103.98589    99.972562    99.972562    129.99451    1299231.9    309.21076 
    8600    -58829.93   -1305.8196   -2098.8267   -1842.0154    23.383512    99.972562    99.972562    129.99451    1299231.9      309.619 
    8700   -58827.501   -1399.2399   -2177.9098     -1968.39   -51.419804    99.972562    99.972562    129.99451    1299231.9    307.48731 
    8800   -58832.452   -1593.0767   -2349.7579   -2064.4154   -365.05675    99.972562    99.972562    129.99451    1299231.9     310.0504 
    8900   -58832.927   -1736.1444   -2497.0837   -2233.6421   -477.70756    99.972562    99.972562    129.99451    1299231.9    309.91091 
    9000   -58833.791   -1742.2658   -2504.3793   -2241.4868   -480.93143    99.972562    99.972562    129.99451    1299231.9    310.36472 
    9100   -58827.097   -1790.7853   -2523.9786   -2291.0885   -557.28889    99.972562    99.972562    129.99451    1299231.9    306.12541 
    9200   -58831.095   -1750.0628   -2444.6456   -2342.4264   -463.11645    99.972562    99.972562    129.99451    1299231.9     308.1628 
    9300   -58829.875   -1692.7622   -2464.6823   -2219.2484   -394.35579    99.972562    99.972562    129.99451    1299231.9    307.49167 
    9400   -58835.363   -1667.9771   -2424.5056   -2214.3503   -365.07556    99.972562    99.972562    129.99451    1299231.9    310.06313 
    9500   -58832.841   -1556.6534   -2226.6678   -2140.3069   -302.98556    99.972562    99.972562    129.99451    1299231.9    308.20136 
    9600   -58831.992   -1469.1307   -2249.7419   -2050.7538   -106.89648    99.972562    99.972562    129.99451    1299231.9    307.42081 
    9700   -58834.809    -1323.528   -2051.8781   -1987.0821    68.376364    99.972562    99.972562    129.99451    1299231.9    308.54112 
    9800   -58836.026   -1214.7829   -1974.5761   -1834.5278    164.75523    99.972562    99.972562    129.99451    1299231.9    308.69882 
    9900   -58837.377   -1121.0609   -1991.0727   -1638.3349    266.22488    99.972562    99.972562    129.99451    1299231.9    309.31069 
   10000   -58842.919   -1132.2904   -1929.8496   -1714.6495    247.62779    99.972562    99.972562    129.99451    1299231.9    311.78948 
   10100   -58837.917   -1147.6953   -1903.5324   -1738.9135    199.35993    99.972562    99.972562    129.99451    1299231.9    308.19716 
   10200   -58840.844    -1186.816   -1963.4769   -1751.5865     154.6155    99.972562    99.972562    129.99451    1299231.9    309.70593 
   10300   -58840.759   -1276.0926   -2103.6144   -1838.3441     113.6807    99.972562    99.972562    129.99451    1299231.9    309.98222 
   10400   -58842.806   -1359.5198   -2158.5632   -1902.5923   -17.404092    99.972562    99.972562    129.99451    1299231.9    310.75718 
   10500   -58837.757   -1386.3595   -2154.8346   -1903.5464   -100.69762    99.972562    99.972562    129.99451    1299231.9    307.45671 
   10600   -58838.601   -1510.4552   -2257.9634   -1989.5324   -283.86993    99.972562    99.972562    129.99451    1299231.9    307.75694 
   10700   -58836.924    -1609.747   -2360.1933   -2062.4842   -406.56356    99.972562    99.972562    129.99451    1299231.9    306.76971 
   10800    -58838.09   -1706.4284   -2394.5086   -2189.2903   -535.48622    99.972562    99.972562    129.99451    1299231.9    306.96231 
   10900   -58840.073   -1751.8654    -2438.441   -2283.9638   -533.19147    99.972562    99.972562    129.99451    1299231.9    307.78925 
   11000   -58838.413   -1726.4303   -2429.6598   -2209.4643    -540.1669    99.972562    99.972562    129.99451    1299231.9    306.13583 
   11100    -58840.56   -1667.5801   -2464.3372   -2132.4438   -405.95927    99.972562    99.972562    129.99451    1299231.9    306.85594 
   11200   -58837.929    -1556.055   -2353.4368   -2122.0402   -192.68809    99.972562    99.972562    129.99451    1299231.9    304.73734 
   11300   -58837.671   -1410.8555   -2240.3293    -1992.477   0.23985787    99.972562    99.972562    129.99451    1299231.9    304.11029 
   11400    -58841.56   -1421.1203   -2303.4405   -1959.4895  -0.43107692    99.972562    99.972562    129.99451    1299231.9    305.98346 
   11500   -58846.058   -1390.7384   -2321.1186   -1926.0991    75.002523    99.972562    99.972562    129.99451    1299231.9    307.85504 
   11600   -58842.389   -1342.6495   -2218.0588   -1919.8154    109.92576    99.972562    99.972562    129.99451    1299231.9     305.5126 
   11700    -58844.26   -1256.1983   -2080.5695   -1798.1887    110.16317    99.972562    99.972562    129.99451    1299231.9     306.0075 
   11800   -58847.864   -1261.0717   -2074.7195   -1784.8305    76.335019    99.972562    99.972562    129.99451    1299231.9    307.93705 
   11900   -58843.809   -1254.5433    -2068.882   -1759.8423    65.094526    99.972562    99.972562    129.99451    1299231.9    305.12034 
   12000   -58844.385   -1290.1902    -1999.075   -1846.8078   -24.687821    99.972562    99.972562    129.99451    1299231.9    305.11788 
   12100   -58843.556   -1307.8568   -2053.9197   -1822.5772   -47.073411    99.972562    99.972562    129.99451    1299231.9    304.35585 
   12200   -58843.499    -1416.461   -2201.1473    -1920.386   -127.84956    99.972562    99.972562    129.99451    1299231.9    303.70101 
   12300   -58847.334   -1412.1626   -2198.4531   -2014.2866   -23.748206    99.972562    99.972562    129.99451    1299231.9    305.39359 
   12400   -58842.737   -1490.9133   -2238.4347   -2022.5188   -211.78661    99.972562    99.972562    129.99451    1299231.9    302.37872 
   12500   -58842.649   -1550.0822    -2327.865   -2036.2359   -286.14579    99.972562    99.972562    129.99451    1299231.9    301.87816 
   12600   -58842.824   -1616.1125   -2502.4274   -2010.8261    -335.0839    99.972562    99.972562    129.99451    1299231.9    301.71972 
   12700   -58845.549   -1641.6994   -2424.8516   -2153.5713   -346.67524    99.972562    99.972562    129.99451    1299231.9    303.00408 
   12800   -58847.119   -1634.7946   -2410.5708   -2104.0197   -389.79325    99.972562    99.972562    129.99451    1299231.9    303.30215 
   12900   -58842.508   -1562.8718    -2312.128   -2119.3246   -257.16295    99.972562    99.972562    129.99451    1299231.9    300.81111 
   13000   -58850.409   -1598.8973   -2408.7608   -2112.2701   -275.66093    99.972562    99.972562    129.99451    1299231.9    305.02004 
   13100   -58845.585   -1497.4774   -2318.5246   -2002.8478   -171.05984    99.972562    99.972562    129.99451    1299231.9    302.22788 
   13200    -58850.53   -1540.0135   -2260.9242   -2000.5556    -358.5608    99.972562    99.972562    129.99451    1299231.9     304.6989 
   13300   -58857.822   -1508.0767   -2262.2963   -1969.8018   -292.13203    99.972562    99.972562    129.99451    1299231.9    308.54487 
   13400   -58858.636   -1518.8853     -2228.92   -2083.4334   -244.30237    99.972562    99.972562    129.99451    1299231.9    308.83849 
   13500   -58864.929   -1411.3247   -2102.7809   -1973.0082   -158.18495    99.972562    99.972562    129.99451    1299231.9    312.36684 
   13600   -58861.624   -1401.1633   -2072.9736   -1942.8143   -187.70221    99.972562    99.972562    129.99451    1299231.9    310.61394 
   13700   -58869.548   -1452.9644   -2151.3996   -1874.4924   -333.00112    99.972562    99.972562    129.99451    1299231.9    315.10141 
   13800   -58870.862   -1503.1825   -2171.9768   -2002.5478   -335.02306    99.972562    99.972562    129.99451    1299231.9    315.68677 
   13900   -58873.277   -1565.5679   -2207.4512   -2103.4407    -385.8117    99.972562    99.972562    129.99451    1299231.9    316.92084 
   14000   -58875.054   -1572.5709   -2212.6288   -2125.5881   -379.49581    99.972562    99.972562    129.99451    1299231.9    317.69163 
   14100   -58878.294   -1540.0178   -2223.0654   -2059.4522   -337.53588    99.972562    99.972562    129.99451    1299231.9    318.97584 
   14200   -58877.069   -1473.4499   -2201.3217     -2012.85   -206.17792    99.972562    99.972562    129.99451    1299231.9    318.14997 
   14300   -58881.558   -1492.3269   -2189.5185   -2098.0974   -189.36486    99.972562    99.972562    129.99451    1299231.9    320.70021 
   14400   -58877.422   -1590.5032   -2297.8914   -2140.8438   -332.77447    99.972562    99.972562    129.99451    1299231.9    318.04218 
   14500   -58881.034   -1499.5943    -2269.685   -2023.8474   -205.25058    99.972562    99.972562    129.99451    1299231.9    319.79191 
   14600   -58884.338   -1376.1193   -2157.4868   -1888.0397   -82.831377    99.972562    99.972562    129.99451    1299231.9    321.24276 
   14700   -58885.459    -1347.493   -2107.0495   -1977.7143    42.284706    99.972562    99.972562    129.99451    1299231.9    321.56814 
   14800   -58895.974   -1303.2532   -2105.3002   -1883.4871    79.027842    99.972562    99.972562    129.99451    1299231.9     326.9024 
   14900   -58894.792   -1236.4444   -2041.1426   -1774.2661    106.07544    99.972562    99.972562    129.99451    1299231.9    325.64162 
   15000   -58893.346   -1224.6577    -2017.101   -1799.4708    142.59879    99.972562    99.972562    129.99451    1299231.9    324.08057 
   15100   -58897.484   -1217.3463   -2097.2045    -1769.635    214.80061    99.972562    99.972562    129.99451    1299231.9     326.0807 
   15200    -58896.17   -1193.1678   -1989.5063   -1768.9327    178.93543    99.972562    99.972562    129.99451    1299231.9    325.10997 
   15300   -58898.192   -1163.9312   -2021.3384   -1720.1119    249.65681    99.972562    99.972562    129.99451    1299231.9    325.86863 
   15400   -58896.224   -1173.4118   -2085.7975   -1677.1032    242.66549    99.972562    99.972562    129.99451    1299231.9    324.16249 
   15500     -58900.4   -1110.3853   -1888.6035   -1703.2946    260.74238    99.972562    99.972562    129.99451    1299231.9    325.88177 
   15600   -58896.266   -1186.6097   -1981.1181   -1789.7927    211.08175    99.972562    99.972562    129.99451    1299231.9     322.9908 
   15700    -58891.71   -1142.6934   -2034.9258   -1667.4898    274.33551    99.972562    99.972562    129.99451    1299231.9    320.35212 
   15800   -58896.052   -1059.8581   -1888.1426   -1624.4705    333.03879    99.972562    99.972562    129.99451    1299231.9    322.55601 
   15900   -58893.155   -1037.6217   -1844.9214   -1632.1485    364.20494    99.972562    99.972562    129.99451    1299231.9    320.65232 
   16000   -58892.976   -1054.8092   -1894.5171   -1600.4289    330.51855    99.972562    99.972562    129.99451    1299231.9    320.40676 
   16100    -58897.26   -1097.9718   -1866.6586   -1636.0607    208.80376    99.972562    99.972562    129.99451    1299231.9    322.26333 
   16200   -58898.591   -1063.8573   -1868.6092   -1557.7043    234.74161    99.972562    99.972562    129.99451    1299231.9    322.84225 
   16300   -58892.939   -988.94658   -1767.2673   -1501.8644    302.29201    99.972562    99.972562    129.99451    1299231.9    318.88367 
   16400   -58895.853    -1081.734   -1809.3742   -1583.6893    147.86141    99.972562    99.972562    129.99451    1299231.9    320.27086 
   16500   -58898.994   -1129.7693    -1802.829   -1631.2233    44.744527    99.972562    99.972562    129.99451    1299231.9    321.89828 
   16600   -58902.657   -1073.8425   -1779.4564   -1522.5964    80.525441    99.972562    99.972562    129.99451    1299231.9    323.71828 
   16700   -58900.182   -1097.1145   -1866.6985   -1566.7041    142.05893    99.972562    99.972562    129.99451    1299231.9    322.06739 
   16800   -58903.938   -1105.9899   -1838.0846   -1562.4444    82.559285    99.972562    99.972562    129.99451    1299231.9    324.01939 
   16900    -58901.17    -1028.372   -1791.7843   -1473.8239     180.4922    99.972562    99.972562    129.99451    1299231.9    321.75694 
   17000   -58907.033   -1183.1867   -1874.0856   -1650.5113    -24.96326    99.972562    99.972562    129.99451    1299231.9    324.76671 
   17100   -58898.754   -1099.4229   -1835.4175   -1560.0793    97.228242    99.972562    99.972562    129.99451    1299231.9    319.65507 
   17200    -58902.48   -1207.0667   -1965.6064   -1620.3752   -35.218412    99.972562    99.972562    129.99451    1299231.9    321.49975 
   17300   -58901.362   -1163.1415   -1875.0727    -1623.068    8.7162351    99.972562    99.972562    129.99451    1299231.9    320.65385 
   17400   -58903.531   -1188.0109   -1914.1041   -1576.0412   -73.887411    99.972562    99.972562    129.99451    1299231.9    321.68403 
   17500   -58907.069   -1186.1147   -1909.6598   -1649.9607    1.2762764    99.972562    99.972562    129.99451    1299231.9     323.4779 
   17600   -58903.048   -1148.7579   -1875.1956   -1606.6777    35.599644    99.972562    99.972562    129.99451    1299231.9    320.69441 
   17700   -58910.655   -1207.8701   -1922.2417   -1646.6989   -54.669742    99.972562    99.972562    129.99451    1299231.9    324.31097 
   17800   -58908.076   -1196.7843   -1919.7628   -1585.6179   -84.972113    99.972562    99.972562    129.99451    1299231.9    322.08188 
   17900   -58909.906   -1233.5729   -1932.8131    -1687.321   -80.584518    99.972562    99.972562    129.99451    1299231.9    322.69364 
   18000   -58914.908   -1315.6612   -2031.6289   -1664.1727   -251.18184    99.972562    99.972562    129.99451    1299231.9    324.96575 
   18100   -58915.309   -1224.0702   -1858.8314   -1632.9109   -180.46841    99.972562    99.972562    129.99451    1299231.9    324.58119 
   18200   -58912.602   -1267.7523     -1941.63   -1669.9334    -191.6936    99.972562    99.972562    129.99451    1299231.9     322.9772 
   18300   -58916.904   -1277.8979   -1954.4193   -1671.9488   -207.32548    99.972562    99.972562    129.99451    1299231.9    325.50262 
   18400   -58918.268   -1307.3042   -1991.1367   -1786.4472   -144.32871    99.972562    99.972562    129.99451    1299231.9    326.16447 
   18500    -58918.48   -1335.0525   -2006.2821   -1787.3046   -211.57072    99.972562    99.972562    129.99451    1299231.9    325.91007 
   18600   -58914.517   -1367.4155   -2034.4369    -1742.775   -325.03463    99.972562    99.972562    129.99451    1299231.9    323.01465 
   18700   -58910.677   -1331.8375   -2007.4914   -1723.1282   -264.89291    99.972562    99.972562    129.99451    1299231.9    320.28324 
   18800   -58916.595   -1318.3985   -2037.4397   -1735.1326   -182.62317    99.972562    99.972562    129.99451    1299231.9    323.27645 
   18900     -58921.5   -1382.8268   -2135.4247   -1820.4739   -192.58184    99.972562    99.972562    129.99451    1299231.9    325.74346 
   19000   -58920.934   -1316.2461    -2094.669   -1673.6613    -180.4079    99.972562    99.972562    129.99451    1299231.9    324.88105 
   19100   -58918.877   -1347.7605   -2006.9208   -1776.1327   -260.22806    99.972562    99.972562    129.99451    1299231.9    323.06925 
   19200   -58923.764   -1336.9971   -2017.1545    -1732.385   -261.45185    99.972562    99.972562    129.99451    1299231.9    324.57648 
   19300    -58924.92   -1324.8479   -2059.9164   -1774.1951   -140.43222    99.972562    99.972562    129.99451    1299231.9    325.20675 
   19400   -58924.961    -1376.406   -2093.4397    -1824.013   -211.76537    99.972562    99.972562    129.99451    1299231.9    324.83672 
   19500   -58921.336   -1413.5141   -2127.7866    -1726.675    -386.0807    99.972562    99.972562    129.99451    1299231.9    322.28147 
   19600   -58926.614   -1315.6247   -2007.8058   -1733.3892   -205.67922    99.972562    99.972562    129.99451    1299231.9    324.92334 
   19700   -58925.927   -1321.6998   -1976.6667   -1795.5206    -192.9122    99.972562    99.972562    129.99451    1299231.9    323.78128 
   19800   -58923.325   -1289.1498   -1959.3131   -1726.6766   -181.45955    99.972562    99.972562    129.99451    1299231.9    321.72699 
   19900    -58929.05   -1330.4883   -2028.1465   -1739.6083   -223.71019    99.972562    99.972562    129.99451    1299231.9    324.45578 
   20000   -58928.737   -1324.1443   -2070.4065   -1781.1987   -120.82781    99.972562    99.972562    129.99451    1299231.9    323.43802 
   20100   -58933.035    -1353.552   -2055.8289   -1809.5671   -195.25991    99.972562    99.972562    129.99451    1299231.9    325.21437 
   20200   -58930.885   -1366.6851    -2106.554   -1787.9669   -205.53428    99.972562    99.972562    129.99451    1299231.9    323.66782 
   20300   -58930.094   -1274.6527   -1970.2797   -1683.9036   -169.77467    99.972562    99.972562    129.99451    1299231.9    322.17739 
   20400   -58937.336   -1300.8287   -1988.3707   -1708.3967   -205.71887    99.972562    99.972562    129.99451    1299231.9    325.78386 
   20500   -58933.258   -1327.0576   -2091.9928   -1750.8195   -138.36063    99.972562    99.972562    129.99451    1299231.9    322.90223 
   20600   -58929.345   -1304.6311   -1959.6383   -1801.0023   -153.25255    99.972562    99.972562    129.99451    1299231.9    320.08651 
   20700   -58937.938   -1282.9926   -1938.8604   -1847.0766   -63.040766    99.972562    99.972562    129.99451    1299231.9    324.67085 
   20800   -58937.551   -1276.8932   -1968.9998   -1748.4175   -113.26225    99.972562    99.972562    129.99451    1299231.9    323.85723 
   20900   -58937.163   -1330.1174   -2039.5615    -1829.123   -121.66769    99.972562    99.972562    129.99451    1299231.9    323.09018 
   21000   -58938.045   -1298.0488   -2056.0941   -1839.5238    1.4715183    99.972562    99.972562    129.99451    1299231.9    323.06123 
   21100   -58939.332   -1264.5516   -1960.2376   -1738.5405   -94.876622    99.972562    99.972562    129.99451    1299231.9    323.23929 
   21200   -58939.852   -1248.5778   -1922.0457   -1672.8749   -150.81275    99.972562    99.972562    129.99451    1299231.9    323.21244 
   21300   -58942.758   -1271.1347   -1995.4701   -1819.2041    1.2701063    99.972562    99.972562    129.99451    1299231.9    324.52994 
   21400   -58938.894    -1252.965   -1975.8168   -1792.4233    9.3450315    99.972562    99.972562    129.99451    1299231.9    322.22154 
   21500   -58937.788   -1228.6543   -2016.3198   -1733.6306    63.987496    99.972562    99.972562    129.99451    1299231.9    320.98558 
   21600   -58942.128   -1331.5389   -2076.7363    -1833.335   -84.545311    99.972562    99.972562    129.99451    1299231.9     322.7827 
   21700   -58939.492   -1424.3969   -2143.8525   -1926.0372   -203.30107    99.972562    99.972562    129.99451    1299231.9    320.91476 
   21800   -58941.905   -1397.3229   -2119.3516   -1854.1803   -218.43672    99.972562    99.972562    129.99451    1299231.9    321.89426 
   21900   -58943.538   -1278.2577   -2038.1096   -1747.4194   -49.244039    99.972562    99.972562    129.99451    1299231.9    322.69209 
   22000   -58950.409   -1217.3544   -2015.1798   -1606.9279   -29.955507    99.972562    99.972562    129.99451    1299231.9    326.36282 
   22100    -58949.11   -1168.9698   -1948.9366   -1624.4286    66.455643    99.972562    99.972562    129.99451    1299231.9    325.43045 
   22200   -58943.937   -1209.2186    -1916.276   -1764.0325    52.652701    99.972562    99.972562    129.99451    1299231.9    322.08242 
   22300   -58942.402   -1304.5353   -1980.0371   -1794.7882   -138.78057    99.972562    99.972562    129.99451    1299231.9    320.78955 
   22400   -58944.096   -1311.2887   -1929.7061   -1862.5727   -141.58734    99.972562    99.972562    129.99451    1299231.9    321.13577 
   22500    -58944.59   -1274.5976   -1976.3768   -1734.2846   -113.13141    99.972562    99.972562    129.99451    1299231.9    320.60917 
   22600   -58944.898   -1177.6469   -1967.3043   -1634.2984    68.661928    99.972562    99.972562    129.99451    1299231.9    320.15906 
   22700   -58946.858   -1188.4942   -1950.0345   -1676.4518    61.003937    99.972562    99.972562    129.99451    1299231.9    321.06283 
   22800   -58943.899   -1251.7164   -1949.7267   -1699.2529   -106.16958    99.972562    99.972562    129.99451    1299231.9    319.10783 
   22900   -58949.103   -1294.5073     -2002.48   -1749.4214   -131.62061    99.972562    99.972562    129.99451    1299231.9     322.0268 
   23000   -58948.939   -1381.4049   -2171.9966   -1763.0879   -209.13013    99.972562    99.972562    129.99451    1299231.9    321.85332 
   23100   -58950.984   -1320.5386   -2032.9341   -1691.2426   -237.43927    99.972562    99.972562    129.99451    1299231.9    322.54433 
   23200   -58952.606   -1402.2421   -2103.6985   -1878.9983   -224.02939    99.972562    99.972562    129.99451    1299231.9    322.45008 
   23300   -58949.596   -1394.0232   -2103.1416   -1832.9656   -245.96241    99.972562    99.972562    129.99451    1299231.9    319.88527 
   23400   -58947.967   -1441.0735   -2124.7623   -1878.8702   -319.58784    99.972562    99.972562    129.99451    1299231.9    318.34563 
   23500   -58948.152   -1472.4308    -2129.061   -2014.0779   -274.15343    99.972562    99.972562    129.99451    1299231.9     317.9685 
   23600   -58952.011   -1451.0071   -2147.0432   -1949.5778   -256.40028    99.972562    99.972562    129.99451    1299231.9    319.91668 
   23700   -58952.778   -1469.4896   -2181.1273   -1995.2218   -232.11957    99.972562    99.972562    129.99451    1299231.9     319.7867 
   23800   -58951.617   -1492.8002   -2125.7847   -2019.1552   -333.46067    99.972562    99.972562    129.99451    1299231.9    318.52773 
   23900   -58946.608   -1420.5869   -2114.7487   -1913.1811   -233.83094    99.972562    99.972562    129.99451    1299231.9     315.3478 
   24000    -58955.47    -1408.273   -2201.2838   -1876.7688    -146.7663    99.972562    99.972562    129.99451    1299231.9     320.1402 
   24100   -58955.613   -1410.4179   -2132.0587   -1905.8897   -193.30538    99.972562    99.972562    129.99451    1299231.9    319.95133 
   24200   -58952.087   -1331.7253   -2084.2025   -1800.8219   -110.15143    99.972562    99.972562    129.99451    1299231.9    317.18605 
   24300    -58960.12   -1307.3512   -2073.3433   -1805.0077   -43.702649    99.972562    99.972562    129.99451    1299231.9    320.96628 
   24400   -58955.601   -1277.0616     -1972.39   -1757.3089     -101.486    99.972562    99.972562    129.99451    1299231.9    317.80475 
   24500   -58958.946    -1261.609   -2035.9216   -1716.8016   -32.103747    99.972562    99.972562    129.99451    1299231.9    319.30095 
   24600   -58957.536   -1309.4615   -1971.2062   -1834.3557   -122.82248    99.972562    99.972562    129.99451    1299231.9    318.05271 
   24700   -58956.971   -1356.5614   -2032.0088   -1939.5021   -98.173463    99.972562    99.972562    129.99451    1299231.9    317.56617 
   24800   -58958.511    -1331.386   -1988.1246    -1923.265   -82.768536    99.972562    99.972562    129.99451    1299231.9    317.96005 
   24900   -58964.411    -1396.875   -2015.9024   -1996.3863   -178.33624    99.972562    99.972562    129.99451    1299231.9    320.75188 
   25000   -58957.472   -1442.0044    -2151.071   -1913.0072   -261.93499    99.972562    99.972562    129.99451    1299231.9    316.11954 
   25100   -58956.437   -1374.3091   -2071.9121   -1927.3786   -123.63649    99.972562    99.972562    129.99451    1299231.9    315.20715 
   25200   -58956.918   -1423.6387   -2047.2904    -1977.803   -245.82277    99.972562    99.972562    129.99451    1299231.9    315.21985 
   25300   -58961.977   -1427.6757   -2046.1306   -2007.0809   -229.81549    99.972562    99.972562    129.99451    1299231.9    317.33332 
   25400    -58961.41   -1355.4985   -2016.9118    -1928.122   -121.46166    99.972562    99.972562    129.99451    1299231.9    316.80542 
   25500   -58963.174   -1442.9913   -2147.7327   -1961.3131   -219.92805    99.972562    99.972562    129.99451    1299231.9     317.2989 
   25600   -58962.651   -1386.0345   -2118.5263   -1895.9954   -143.58179    99.972562    99.972562    129.99451    1299231.9     316.9046 
   25700   -58966.661   -1365.1887   -2094.6845   -1901.8993   -98.982421    99.972562    99.972562    129.99451    1299231.9    319.18316 
   25800   -58958.858   -1377.2417     -2084.87   -1886.5073   -160.34767    99.972562    99.972562    129.99451    1299231.9    314.16155 
   25900   -58956.127   -1363.7014   -2030.2829   -1949.7566    -111.0648    99.972562    99.972562    129.99451    1299231.9    312.08085 
   26000   -58962.606   -1351.2893   -2068.4152    -1890.251   -95.201738    99.972562    99.972562    129.99451    1299231.9    315.62607 
   26100   -58960.435   -1298.4536   -2028.7167     -1806.46   -60.184048    99.972562    99.972562    129.99451    1299231.9    314.55514 
   26200   -58963.537   -1278.5791   -1997.7178   -1808.3684   -29.651021    99.972562    99.972562    129.99451    1299231.9    316.16417 
   26300   -58967.216   -1316.7206    -2015.284   -1837.8808   -96.996831    99.972562    99.972562    129.99451    1299231.9    318.04959 
   26400   -58961.341   -1327.5894   -2093.3399   -1757.3375   -132.09087    99.972562    99.972562    129.99451    1299231.9    314.49695 
   26500   -58964.605   -1380.0068   -2080.6507   -1835.8248   -223.54485    99.972562    99.972562    129.99451    1299231.9    315.84507 
   26600   -58966.006    -1377.499   -2052.4724   -1912.3817   -167.64274    99.972562    99.972562    129.99451    1299231.9    315.82061 
   26700   -58966.097   -1354.8381   -2119.5584   -1824.4495   -120.50646    99.972562    99.972562    129.99451    1299231.9    315.75368 
   26800   -58967.724   -1332.2511   -2058.4177   -1835.2539   -103.08166    99.972562    99.972562    129.99451    1299231.9    316.69818 
   26900   -58968.279   -1227.8888   -1946.3041   -1721.3667   -15.995731    99.972562    99.972562    129.99451    1299231.9    317.08568 
   27000   -58967.022   -1228.1267   -1953.1077    -1775.178     43.90564    99.972562    99.972562    129.99451    1299231.9    316.36447 
   27100   -58966.827   -1241.0162   -2032.4889   -1750.2611    59.701255    99.972562    99.972562    129.99451    1299231.9    316.35086 
   27200   -58964.573   -1308.7688   -2082.0849   -1871.6487    27.427194    99.972562    99.972562    129.99451    1299231.9    315.06546 
   27300   -58967.681   -1389.9058   -2076.0199   -1921.6758   -172.02174    99.972562    99.972562    129.99451    1299231.9    316.40093 
   27400   -58965.445   -1494.9234   -2236.2482   -1911.9178    -336.6043    99.972562    99.972562    129.99451    1299231.9    314.39637 
   27500   -58969.003   -1459.8158   -2132.2431   -1992.8199   -254.38446    99.972562    99.972562    129.99451    1299231.9    316.37815 
   27600   -58967.031    -1466.654   -2179.8877   -2000.6977   -219.37655    99.972562    99.972562    129.99451    1299231.9    314.74077 
   27700   -58968.038    -1428.091   -2040.5923    -2028.086    -215.5948    99.972562    99.972562    129.99451    1299231.9    315.45175 
   27800   -58966.487   -1479.0145   -2101.7394   -2013.5511   -321.75309    99.972562    99.972562    129.99451    1299231.9    314.29163 
   27900   -58970.811   -1503.2565   -2239.7758   -1943.2614    -326.7323    99.972562    99.972562    129.99451    1299231.9    315.53722 
   28000   -58973.323   -1439.5271   -2180.5652   -1935.3531   -202.66299    99.972562    99.972562    129.99451    1299231.9    316.46862 
   28100   -58969.925   -1432.0214   -2158.2562   -1879.6256   -258.18239    99.972562    99.972562    129.99451    1299231.9     314.3995 
   28200   -58968.601   -1370.0861   -2071.4252   -1864.7483   -174.08472    99.972562    99.972562    129.99451    1299231.9     313.2666 
   28300   -58972.814   -1368.8864   -2026.5552   -1813.7754   -266.32842    99.972562    99.972562    129.99451    1299231.9    315.58616 
   28400   -58970.084   -1318.8844   -1954.2162   -1854.2037   -148.23315    99.972562    99.972562    129.99451    1299231.9     313.3872 
   28500   -58971.456   -1348.3987   -1972.3074   -1938.2553   -134.63344    99.972562    99.972562    129.99451    1299231.9    313.78811 
   28600     -58975.8   -1283.2219   -2002.9706   -1781.7236   -64.971416    99.972562    99.972562    129.99451    1299231.9    315.77496 
   28700   -58974.666   -1241.7216   -2019.9006   -1723.0285    17.764301    99.972562    99.972562    129.99451    1299231.9    314.72921 
   28800   -58971.782   -1183.9691   -1917.4241   -1711.9959    77.512672    99.972562    99.972562    129.99451    1299231.9    312.69032 
   28900   -58975.252   -1239.6229   -1957.1579   -1843.9346    82.223722    99.972562    99.972562    129.99451    1299231.9    314.51442 
   29000   -58974.519   -1290.8004   -2025.7086   -1838.8848    -7.807722    99.972562    99.972562    129.99451    1299231.9    313.52071 
   29100   -58977.037   -1342.0605   -1992.0985   -1907.1092   -126.97394    99.972562    99.972562    129.99451    1299231.9    314.77535 
   29200   -58976.682   -1328.5686   -1934.6436     -1897.56   -153.50207    99.972562    99.972562    129.99451    1299231.9     314.7443 
   29300   -58976.752   -1338.4897   -2018.2795   -1869.2989   -127.89083    99.972562    99.972562    129.99451    1299231.9    314.68142 
   29400   -58976.701   -1416.8998   -2065.2085    -1966.178   -219.31295    99.972562    99.972562    129.99451    1299231.9     314.6634 
   29500   -58977.637   -1549.9095   -2255.0547   -2062.0589   -332.61495    99.972562    99.972562    129.99451    1299231.9    314.93262 
   29600    -58974.79   -1540.3747   -2265.7601   -2009.9309   -345.43297    99.972562    99.972562    129.99451    1299231.9     313.4638 
   29700   -58971.229   -1508.4147   -2117.0961   -2088.9654   -319.18258    99.972562    99.972562    129.99451    1299231.9    311.27908 
   29800   -58973.751   -1561.4105   -2229.1043   -2116.6026   -338.52468    99.972562    99.972562    129.99451    1299231.9    312.25436 
   29900   -58978.642   -1600.8803   -2329.5249   -2161.1648   -311.95108    99.972562    99.972562    129.99451    1299231.9     315.1179 
   30000   -58977.373   -1510.3642   -2254.0928   -2033.7416    -243.2582    99.972562    99.972562    129.99451    1299231.9    313.93988 
   30100   -58979.148    -1424.022   -2187.9809   -1942.9742   -141.11072    99.972562    99.972562    129.99451    1299231.9    314.91044 
   30200   -58981.932    -1404.168   -2177.3226   -1915.8422   -119.33917    99.972562    99.972562    129.99451    1299231.9    316.45165 
   30300   -58975.126   -1416.1253   -2067.0965   -1932.1772   -249.10235    99.972562    99.972562    129.99451    1299231.9    312.44698 
   30400   -58979.375   -1300.8213   -1953.2299   -1845.0297   -104.20421    99.972562    99.972562    129.99451    1299231.9    314.76487 
   30500   -58976.485   -1246.2267     -1947.73   -1799.2275    8.2774247    99.972562    99.972562    129.99451    1299231.9    312.99449 
   30600   -58977.153   -1213.2898   -1947.6701   -1749.1218    56.922576    99.972562    99.972562    129.99451    1299231.9    312.67891 
   30700   -58982.121   -1257.0715   -1946.2041   -1804.9317    -20.07888    99.972562    99.972562    129.99451    1299231.9    315.54799 
   30800   -58981.348    -1292.219   -2007.4846   -1773.3156   -95.856801    99.972562    99.972562    129.99451    1299231.9    314.86919 
   30900   -58979.639   -1376.2888   -2111.0241   -1868.3473   -149.49504    99.972562    99.972562    129.99451    1299231.9     313.5316 
   31000   -58983.285   -1302.8516   -1990.6219    -1862.675   -55.257823    99.972562    99.972562    129.99451    1299231.9    315.19045 
   31100   -58979.044   -1234.6442   -1902.2673   -1856.6507    54.985531    99.972562    99.972562    129.99451    1299231.9    312.10112 
   31200   -58980.821    -1325.133   -2048.2096   -1907.0451   -20.144214    99.972562    99.972562    129.99451    1299231.9    312.91178 
   31300   -58978.451   -1311.8274   -2093.8545   -1894.8404    53.212543    99.972562    99.972562    129.99451    1299231.9    311.21874 
   31400   -58982.295   -1449.1072   -2170.4306    -2019.922   -156.96899    99.972562    99.972562    129.99451    1299231.9    313.38072 
   31500   -58978.038   -1512.4471   -2197.4669   -2006.7055   -333.16905    99.972562    99.972562    129.99451    1299231.9    310.48772 
   31600   -58977.978   -1421.2883   -2115.0301   -1929.8263   -219.00842    99.972562    99.972562    129.99451    1299231.9    310.33215 
   31700   -58983.321   -1486.6671   -2088.3104   -2027.8516    -343.8392    99.972562    99.972562    129.99451    1299231.9    313.18081 
   31800   -58985.432   -1428.4475   -2058.2264   -1991.1042    -236.0118    99.972562    99.972562    129.99451    1299231.9    313.97847 
   31900    -58980.51    -1407.951   -2056.1344   -1974.0607   -193.65788    99.972562    99.972562    129.99451    1299231.9    310.94834 
   32000   -58984.383    -1453.256   -2012.4588   -2020.6395   -326.66957    99.972562    99.972562    129.99451    1299231.9    312.89786 
   32100   -58981.662   -1376.3609   -1994.7095   -1941.6265    -192.7468    99.972562    99.972562    129.99451    1299231.9    311.34662 
   32200   -58980.548    -1367.803   -1963.4337   -2017.4806   -122.49476    99.972562    99.972562    129.99451    1299231.9    310.26342 
   32300   -58978.349   -1345.4787   -2023.8474   -1924.4279   -88.160771    99.972562    99.972562    129.99451    1299231.9    308.25327 
   32400   -58990.626   -1335.8227   -2079.8379   -1831.6673   -95.962952    99.972562    99.972562    129.99451    1299231.9    314.86726 
   32500    -58989.64   -1301.8191   -1925.9227    -1939.436   -40.098499    99.972562    99.972562    129.99451    1299231.9    314.11765 
   32600   -58982.353   -1238.9707    -1882.986    -1848.873    14.946846    99.972562    99.972562    129.99451    1299231.9    309.84269 
   32700   -58987.526   -1297.9207   -1936.4794    -1869.343   -87.939638    99.972562    99.972562    129.99451    1299231.9    312.92289 
   32800   -58982.835   -1404.9371   -2098.3546   -1891.7861   -224.67053    99.972562    99.972562    129.99451    1299231.9     309.7057 
   32900   -58986.656   -1370.3818   -2068.0055   -1884.3698   -158.77021    99.972562    99.972562    129.99451    1299231.9    311.43624 
   33000   -58988.397   -1377.1712   -2065.9087   -1896.4888   -169.11606    99.972562    99.972562    129.99451    1299231.9    312.10307 
   33100   -58981.012   -1354.6095    -2004.189    -1932.241   -127.39854    99.972562    99.972562    129.99451    1299231.9    307.66951 
   33200   -58993.028   -1414.4915   -2077.6107   -1974.3696   -191.49426    99.972562    99.972562    129.99451    1299231.9     314.3982 
   33300   -58985.782   -1420.5445   -2097.2627   -1994.7333   -169.63751    99.972562    99.972562    129.99451    1299231.9    310.38084 
   33400    -58985.34   -1480.1064   -2007.4237   -2102.3455   -330.55001    99.972562    99.972562    129.99451    1299231.9    309.89965 
   33500   -58985.008   -1435.4255   -2017.4081    -1997.237   -291.63137    99.972562    99.972562    129.99451    1299231.9    309.68233 
   33600   -58988.628   -1392.7783   -1996.9336    -1989.715    -191.6863    99.972562    99.972562    129.99451    1299231.9    311.32123 
   33700   -58987.658     -1360.59   -2045.1601   -1837.2003   -199.40948    99.972562    99.972562    129.99451    1299231.9    310.17443 
   33800   -58984.818   -1419.5916   -2119.5722   -1926.1615   -213.04105    99.972562    99.972562    129.99451    1299231.9     307.8751 
   33900   -58986.802   -1368.7665   -1968.7097    -1953.186   -184.40374    99.972562    99.972562    129.99451    1299231.9    308.80163 
   34000   -58991.127   -1350.4341   -2020.3488   -1876.0104   -154.94319    99.972562    99.972562    129.99451    1299231.9    311.40981 
   34100    -58986.23   -1209.1016   -1797.2265   -1808.4189   -21.659528    99.972562    99.972562    129.99451    1299231.9    308.90583 
   34200   -58989.457   -1183.3769   -1856.8692   -1785.1935    91.932008    99.972562    99.972562    129.99451    1299231.9     310.8146 
   34300   -58989.152   -1185.3497    -1850.168   -1738.3989    32.517979    99.972562    99.972562    129.99451    1299231.9    310.84392 
   34400   -58993.715   -1278.5217   -1930.3046   -1845.9853   -59.275271    99.972562    99.972562    129.99451    1299231.9    313.58026 
   34500   -58988.867    -1269.444   -1980.8242   -1804.0968   -23.410875    99.972562    99.972562    129.99451    1299231.9    310.87479 
   34600   -58990.642   -1323.0727    -1993.733   -1826.3231   -149.16217    99.972562    99.972562    129.99451    1299231.9    311.86844 
   34700   -58988.942   -1338.1681   -1920.6244    -1903.512   -190.36793    99.972562    99.972562    129.99451    1299231.9    310.97005 
   34800   -58992.262   -1329.0543   -1948.3453   -1942.2285   -96.589132    99.972562    99.972562    129.99451    1299231.9    312.72991 
   34900   -58990.395   -1355.3727   -2007.1771   -1977.7121   -81.228922    99.972562    99.972562    129.99451    1299231.9    311.50195 
   35000   -58990.364   -1410.5692   -2063.5815   -1990.2045   -177.92165    99.972562    99.972562    129.99451    1299231.9     311.0184 
   35100   -58988.231   -1544.1222   -2166.6579   -2130.4526   -335.25623    99.972562    99.972562    129.99451    1299231.9    309.43709 
   35200   -58990.168   -1513.3201    -2146.479   -2143.1373   -250.34395    99.972562    99.972562    129.99451    1299231.9    310.76249 
   35300   -58991.261   -1497.7422   -2104.8028   -2062.8889   -325.53486    99.972562    99.972562    129.99451    1299231.9    311.17923 
   35400   -58990.803   -1473.4023   -2106.4881   -2029.9603   -283.75851    99.972562    99.972562    129.99451    1299231.9    310.32914 
   35500   -58986.581    -1430.383   -2069.6721   -1951.5411    -269.9358    99.972562    99.972562    129.99451    1299231.9    307.63859 
   35600   -58990.225   -1447.3287    -2095.148   -2008.8792   -237.95897    99.972562    99.972562    129.99451    1299231.9    309.65144 
   35700    -58988.42   -1437.7594   -2127.9235   -2007.0366   -178.31798    99.972562    99.972562    129.99451    1299231.9    308.24123 
   35800   -58989.197   -1314.3036   -2014.5855   -1867.6215   -60.703968    99.972562    99.972562    129.99451    1299231.9    308.48707 
   35900   -58994.014   -1225.9703   -1842.9588   -1845.3916    10.439587    99.972562    99.972562    129.99451    1299231.9    310.81446 
   36000   -58991.757   -1233.6249   -1937.1039   -1753.9108   -9.8599584    99.972562    99.972562    129.99451    1299231.9    309.43741 
   36100   -58995.754   -1250.8318   -1970.7215   -1829.0937    47.319788    99.972562    99.972562    129.99451    1299231.9    311.83886 
   36200   -58995.351   -1262.9773   -1903.9525   -1849.2682   -35.711032    99.972562    99.972562    129.99451    1299231.9    311.45841 
   36300   -58995.336   -1312.0885   -1937.3335   -1887.8632   -111.06874    99.972562    99.972562    129.99451    1299231.9    311.33573 
   36400   -58993.464   -1248.5177    -1876.939   -1898.7137    30.099543    99.972562    99.972562    129.99451    1299231.9    310.06825 
   36500    -58999.08    -1229.557   -1868.1816   -1870.4459    49.956633    99.972562    99.972562    129.99451    1299231.9    313.22441 
   36600   -58994.625   -1316.5801   -1966.5494   -1910.1891   -73.001628    99.972562    99.972562    129.99451    1299231.9    309.96903 
   36700   -58995.321   -1322.2662   -1982.3447   -1849.9995    -134.4544    99.972562    99.972562    129.99451    1299231.9    309.79139 
   36800   -58992.449   -1422.5125   -2073.5132    -1886.662    -307.3621    99.972562    99.972562    129.99451    1299231.9    307.79914 
   36900   -58992.385    -1410.381   -2076.6839   -1944.2262   -210.23273    99.972562    99.972562    129.99451    1299231.9    307.94725 
   37000   -58996.877    -1432.674   -2078.5437   -2000.8233   -218.65502    99.972562    99.972562    129.99451    1299231.9    310.42328 
   37100   -58995.356   -1441.9219   -2068.7286   -1991.4607   -265.57636    99.972562    99.972562    129.99451    1299231.9    309.82299 
   37200    -58994.66   -1443.9868   -2151.6806   -1980.5885   -199.69129    99.972562    99.972562    129.99451    1299231.9    308.97091 
   37300   -59000.105   -1443.4397   -2005.4946   -2035.9501   -288.87442    99.972562    99.972562    129.99451    1299231.9    311.74994 
   37400   -59000.313    -1420.246   -2033.8318    -1993.276   -233.63022    99.972562    99.972562    129.99451    1299231.9    311.86464 
   37500   -59000.299   -1433.1205   -2109.0474   -1996.2908   -194.02336    99.972562    99.972562    129.99451    1299231.9    311.20239 
   37600   -58997.762   -1415.1815   -2093.1861   -1982.7787   -169.57968    99.972562    99.972562    129.99451    1299231.9    309.21457 
   37700   -58998.519   -1447.1902    -2034.915   -2051.6688   -254.98672    99.972562    99.972562    129.99451    1299231.9    309.30296 
   37800    -59000.11   -1427.7531   -2092.3365   -2002.4439   -188.47893    99.972562    99.972562    129.99451    1299231.9    309.71706 
   37900   -58995.999   -1413.6848   -2166.0861   -1951.3425   -123.62581    99.972562    99.972562    129.99451    1299231.9     307.0525 
   38000   -59000.476   -1393.2671   -2028.9442   -1968.2397   -182.61727    99.972562    99.972562    129.99451    1299231.9    309.42982 
   38100   -58994.703   -1293.3139   -1998.9103   -1823.6092   -57.422127    99.972562    99.972562    129.99451    1299231.9    306.32344 
   38200   -59001.229   -1340.1228   -2029.7574   -1867.0689   -123.54211    99.972562    99.972562    129.99451    1299231.9    309.94182 
   38300   -59000.157   -1332.4884   -2012.6413   -1925.1297   -59.694149    99.972562    99.972562    129.99451    1299231.9    308.93855 
   38400   -59002.847   -1395.2503   -2000.6298   -2010.0151   -175.10584    99.972562    99.972562    129.99451    1299231.9     310.1873 
   38500   -58998.645   -1375.3645   -1987.3088   -2012.3971   -126.38754    99.972562    99.972562    129.99451    1299231.9    307.84569 
   38600   -59001.813   -1376.7218   -2044.1067   -1962.5729   -123.48572    99.972562    99.972562    129.99451    1299231.9    309.50062 
   38700   -59000.271   -1304.6387   -1943.2912   -1925.5294    -45.09568    99.972562    99.972562    129.99451    1299231.9    308.61013 
   38800   -58998.266    -1315.539   -1915.7954   -1895.9597   -134.86179    99.972562    99.972562    129.99451    1299231.9    307.36135 
   38900   -58996.669   -1373.6648   -2067.6924   -1871.5853   -181.71682    99.972562    99.972562    129.99451    1299231.9    306.21546 
   39000   -58998.481   -1394.3786   -1998.0961   -1952.5852   -232.45434    99.972562    99.972562    129.99451    1299231.9     307.1506 
   39100   -59005.837   -1357.3439   -1994.3318   -1941.3817   -136.31805    99.972562    99.972562    129.99451    1299231.9    311.17754 
   39200   -59000.321   -1420.2957    -2084.107    -1953.238   -223.54211    99.972562    99.972562    129.99451    1299231.9    307.56451 
   39300   -58997.219    -1422.104     -2114.21   -1938.2145   -213.88737    99.972562    99.972562    129.99451    1299231.9    305.38798 
   39400   -59001.343   -1380.4259    -1975.967   -1986.4655   -178.84518    99.972562    99.972562    129.99451    1299231.9    308.04248 
   39500   -59000.251   -1393.2378   -2025.1636    -1979.516   -175.03397    99.972562    99.972562    129.99451    1299231.9    307.03989 
   39600     -59002.1   -1350.6212   -1973.0688   -1942.1371   -136.65785    99.972562    99.972562    129.99451    1299231.9    307.48842 
   39700   -59005.313   -1417.1338   -2081.8197   -1936.8232   -232.75843    99.972562    99.972562    129.99451    1299231.9    309.31548 
   39800   -58999.175    -1382.294    -1981.947   -1992.3705   -172.56469    99.972562    99.972562    129.99451    1299231.9    305.67518 
   39900   -58999.504   -1350.6939   -1931.3215   -1989.4307    -131.3297    99.972562    99.972562    129.99451    1299231.9    305.89009 
   40000   -59002.727   -1344.1725   -1891.6328   -1961.5222   -179.36247    99.972562    99.972562    129.99451    1299231.9    307.32124 
   40100   -59003.403   -1303.4514   -1882.3596    -1889.369   -138.62569    99.972562    99.972562    129.99451    1299231.9    307.61534 
   40200   -59005.306   -1341.7616   -1971.5133   -1940.4874   -113.28408    99.972562    99.972562    129.99451    1299231.9    308.32272 
   40300   -58999.138   -1321.6724    -1926.359    -1944.544   -94.114111    99.972562    99.972562    129.99451    1299231.9    304.46997 
   40400   -59010.292   -1373.7726   -2035.1729   -1939.1766    -146.9683    99.972562    99.972562    129.99451    1299231.9     310.9653 
   40500    -59006.21   -1362.8102   -2007.5408   -1952.6802   -128.20969    99.972562    99.972562    129.99451    1299231.9     308.5189 
   40600   -59007.018   -1332.2171   -1996.8779   -1896.6161    -103.1572    99.972562    99.972562    129.99451    1299231.9    308.65681 
   40700   -59001.652   -1203.5938   -1906.1789   -1817.0608     112.4582    99.972562    99.972562    129.99451    1299231.9    305.27215 
   40800   -59003.931   -1253.0713   -1914.9201   -1867.6287    23.334898    99.972562    99.972562    129.99451    1299231.9    306.77551 
   40900   -59004.675   -1332.0033   -1955.8862   -1950.9185   -89.205081    99.972562    99.972562    129.99451    1299231.9    307.18613 
   41000   -59003.504   -1280.4875   -1828.6965   -1903.8301   -108.93588    99.972562    99.972562    129.99451    1299231.9     305.7243 
   41100   -59009.195   -1337.1127   -1967.0381   -1938.5814   -105.71869    99.972562    99.972562    129.99451    1299231.9    308.92417 
   41200   -59007.551   -1377.0448   -1991.2058   -1942.5586   -197.36991    99.972562    99.972562    129.99451    1299231.9     307.9761 
   41300   -59003.233   -1353.6168    -1925.764   -1930.6778    -204.4085    99.972562    99.972562    129.99451    1299231.9    305.28546 
   41400   -59004.932   -1345.8141   -2022.4708   -1953.6049    -61.36675    99.972562    99.972562    129.99451    1299231.9    306.01104 
   41500   -59009.274    -1408.488    -2004.785   -1990.3315   -230.34735    99.972562    99.972562    129.99451    1299231.9    308.38299 
   41600   -59007.871   -1428.2655   -2012.4897   -2061.8061   -210.50082    99.972562    99.972562    129.99451    1299231.9    307.64132 
   41700   -59009.597   -1411.6424   -2012.2834    -1971.644   -250.99994    99.972562    99.972562    129.99451    1299231.9    308.36575 
   41800   -59002.184   -1379.0334   -2000.1882   -1913.9066    -223.0054    99.972562    99.972562    129.99451    1299231.9    303.51558 
   41900   -59005.818   -1422.8824   -1991.6101   -2058.8706   -218.16642    99.972562    99.972562    129.99451    1299231.9    304.78485 
   42000   -59005.818   -1427.3353   -2019.0238   -2010.3545   -252.62743    99.972562    99.972562    129.99451    1299231.9    304.82435 
   42100   -59008.256   -1364.2008   -1983.3474   -1957.5094   -151.74559    99.972562    99.972562    129.99451    1299231.9    305.08029 
   42200   -59004.105   -1387.7944   -1951.2026   -2010.2466   -201.93407    99.972562    99.972562    129.99451    1299231.9    302.02882 
   42300   -59008.026   -1291.8209   -1845.7718   -1959.6251   -70.065759    99.972562    99.972562    129.99451    1299231.9    304.09008 
   42400   -59014.195    -1261.486   -1866.3107   -1860.5221   -57.625242    99.972562    99.972562    129.99451    1299231.9    307.72261 
   42500   -59004.425   -1249.3499   -1940.8344    -1768.047   -39.168431    99.972562    99.972562    129.99451    1299231.9     301.6481 
   42600   -59015.337   -1269.1924    -1914.037   -1876.9758   -16.564479    99.972562    99.972562    129.99451    1299231.9    308.07179 
   42700   -59008.238   -1286.8442   -1848.8876   -1930.0817   -81.563351    99.972562    99.972562    129.99451    1299231.9    303.70693 
   42800   -59007.625   -1315.1521   -1877.9563   -2009.6412   -57.858711    99.972562    99.972562    129.99451    1299231.9    303.15595 
   42900   -59011.869   -1329.5515   -1970.7828   -1913.9992   -103.87244    99.972562    99.972562    129.99451    1299231.9    305.67401 
   43000    -59014.26   -1395.9614   -1973.6713   -2020.4539   -193.75911    99.972562    99.972562    129.99451    1299231.9    307.32147 
   43100   -59009.539   -1370.4359   -1931.3033   -1992.2712   -187.73317    99.972562    99.972562    129.99451    1299231.9    304.06242 
   43200   -59009.137   -1423.6435   -2012.2181   -1987.6597   -271.05262    99.972562    99.972562    129.99451    1299231.9    303.26304 
   43300   -59012.321   -1441.6601   -2039.9727   -1984.3077   -300.69991    99.972562    99.972562    129.99451    1299231.9    305.26789 
   43400   -59009.744   -1389.0739   -2021.7019   -1910.7642   -234.75563    99.972562    99.972562    129.99451    1299231.9    304.15998 
   43500   -59011.463   -1376.4095   -1944.6634   -2000.8114   -183.75377    99.972562    99.972562    129.99451    1299231.9    304.84035 
   43600   -59011.293   -1445.6953    -2056.138   -2012.2388   -268.70903    99.972562    99.972562    129.99451    1299231.9    304.76642 
   43700   -59013.323   -1400.4496   -2058.7299   -1981.9946   -160.62415    99.972562    99.972562    129.99451    1299231.9    306.09827 
   43800   -59002.069   -1350.3434   -2004.2894   -1949.7783   -96.962392    99.972562    99.972562    129.99451    1299231.9    299.11566 
   43900   -59017.276   -1347.3108    -1990.438   -1881.5371   -169.95727    99.972562    99.972562    129.99451    1299231.9    307.85746 
   44000    -59017.37   -1395.8372   -2060.5944   -1953.8683   -173.04877    99.972562    99.972562    129.99451    1299231.9    307.47841 
   44100    -59016.35     -1386.79   -2068.9429   -1863.8932   -227.53404    99.972562    99.972562    129.99451    1299231.9    306.70398 
   44200    -59010.45   -1310.4644   -2022.5021   -1835.3805   -73.510549    99.972562    99.972562    129.99451    1299231.9    303.40034 
   44300   -59008.916   -1289.2486   -1960.0181   -1885.9188   -21.808838    99.972562    99.972562    129.99451    1299231.9    302.92148 
   44400   -59006.579   -1357.8303   -1948.5402   -1924.7259   -200.22465    99.972562    99.972562    129.99451    1299231.9    301.45811 
   44500   -59008.239   -1346.2541   -1924.2983   -1908.7438   -205.72029    99.972562    99.972562    129.99451    1299231.9    302.42979 
   44600    -59010.42   -1329.8198   -1953.5273   -1889.4294   -146.50271    99.972562    99.972562    129.99451    1299231.9     303.6625 
   44700   -59014.437   -1420.0327   -2024.3334   -1969.5613   -266.20357    99.972562    99.972562    129.99451    1299231.9     305.6334 
   44800    -59014.61   -1428.1385   -2035.5243   -2020.6932   -228.19795    99.972562    99.972562    129.99451    1299231.9    305.15997 
   44900   -59012.724    -1425.381   -2020.7186    -1932.967   -322.45743    99.972562    99.972562    129.99451    1299231.9    304.07888 
   45000   -59014.881   -1399.9604   -1998.9264   -1991.6612   -209.29354    99.972562    99.972562    129.99451    1299231.9    305.36871 
   45100   -59008.732   -1342.2613   -1875.3353   -1915.4349   -236.01381    99.972562    99.972562    129.99451    1299231.9    302.19454 
   45200   -59010.233   -1334.5013   -1968.6136   -1918.0711   -116.81903    99.972562    99.972562    129.99451    1299231.9    302.91775 
   45300   -59004.803   -1340.1119   -2043.2224   -1869.2051   -107.90819    99.972562    99.972562    129.99451    1299231.9    299.95327 
   45400   -59012.679   -1321.9281   -1998.8331   -1905.6113   -61.339811    99.972562    99.972562    129.99451    1299231.9    304.38613 
   45500   -59009.187   -1317.4357   -1894.9354    -1934.567   -122.80471    99.972562    99.972562    129.99451    1299231.9    301.88851 
   45600   -59014.015   -1359.4129   -1945.0782   -1920.9865   -212.17393    99.972562    99.972562    129.99451    1299231.9    304.68855 
   45700   -59013.384   -1299.8058   -1988.0112   -1856.1141   -55.291895    99.972562    99.972562    129.99451    1299231.9    304.12736 
   45800   -59011.349    -1199.441     -1874.98   -1783.8423    60.499419    99.972562    99.972562    129.99451    1299231.9    302.39115 
   45900   -59014.197   -1214.6549    -1814.926   -1805.7979   -23.240933    99.972562    99.972562    129.99451    1299231.9    303.79145 
   46000   -59015.288   -1261.2989    -1919.479   -1891.3822    26.964479    99.972562    99.972562    129.99451    1299231.9    303.97008 
   46100   -59015.533    -1234.224   -1895.8822   -1863.3744    56.584547    99.972562    99.972562    129.99451    1299231.9    303.54228 
   46200   -59012.697   -1345.4558   -1990.9065   -1940.9066   -104.55412    99.972562    99.972562    129.99451    1299231.9    301.74385 
   46300   -59015.196   -1343.5374   -2031.8968   -1859.9184   -138.79717    99.972562    99.972562    129.99451    1299231.9      303.043 
   46400   -59010.452   -1284.3018   -2047.2835   -1785.4086   -20.213138    99.972562    99.972562    129.99451    1299231.9    300.04016 
   46500   -59018.778   -1408.2991   -2029.6176   -1948.2895   -246.99007    99.972562    99.972562    129.99451    1299231.9    304.51711 
   46600   -59015.034   -1431.4976   -2024.0925   -2032.9278   -237.47248    99.972562    99.972562    129.99451    1299231.9    302.14502 
   46700     -59016.2   -1377.0136   -1963.6803   -1966.3535   -201.00692    99.972562    99.972562    129.99451    1299231.9    302.86338 
   46800   -59015.495   -1397.1208   -1958.2949   -1928.1333   -304.93416    99.972562    99.972562    129.99451    1299231.9    302.47098 
   46900   -59015.046   -1396.4385   -2005.0345   -1921.5346    -262.7464    99.972562    99.972562    129.99451    1299231.9    302.34767 
   47000   -59017.304    -1374.406   -2034.3602   -1956.1068   -132.75102    99.972562    99.972562    129.99451    1299231.9    303.34876 
   47100   -59012.331   -1318.4158   -1919.2366   -1862.9496   -173.06118    99.972562    99.972562    129.99451    1299231.9    300.20763 
   47200   -59021.858   -1335.9572   -1931.5094   -1903.5996   -172.76243    99.972562    99.972562    129.99451    1299231.9    305.38262 
   47300    -59014.17   -1353.0193   -1897.7363   -1938.1533   -223.16819    99.972562    99.972562    129.99451    1299231.9    300.80731 
   47400    -59021.42   -1324.6985   -1890.4292   -1919.6914    -163.9749    99.972562    99.972562    129.99451    1299231.9     304.6278 
   47500   -59010.549   -1250.6523   -1848.2787    -1890.725   -12.953298    99.972562    99.972562    129.99451    1299231.9    298.38694 
   47600   -59018.693   -1251.5149   -1920.3144   -1851.7145    17.484349    99.972562    99.972562    129.99451    1299231.9    303.14959 
   47700    -59016.35   -1293.3972   -1880.2004   -1935.5325   -64.458612    99.972562    99.972562    129.99451    1299231.9    301.99949 
   47800   -59013.175   -1343.9194   -1981.9996    -1926.792   -122.96674    99.972562    99.972562    129.99451    1299231.9    300.26856 
   47900    -59010.46   -1331.8909   -1974.1407   -1906.3098   -115.22217    99.972562    99.972562    129.99451    1299231.9    298.82043 
   48000   -59013.922   -1331.5805    -2017.818   -1922.5297    -54.39376    99.972562    99.972562    129.99451    1299231.9    300.68866 
   48100   -59011.943   -1335.9834   -1970.1572     -1847.26   -190.53317    99.972562    99.972562    129.99451    1299231.9    299.28968 
   48200   -59019.458   -1407.5095   -2115.8243   -1887.7328   -218.97162    99.972562    99.972562    129.99451    1299231.9     303.3511 
   48300   -59015.967   -1378.9765    -2047.303    -1874.697    -214.9297    99.972562    99.972562    129.99451    1299231.9    300.99248 
   48400    -59015.48   -1397.9953   -2038.5338   -1945.7613   -209.69071    99.972562    99.972562    129.99451    1299231.9     300.1332 
   48500   -59012.893   -1466.4914    -2079.419    -2085.084   -234.97126    99.972562    99.972562    129.99451    1299231.9    298.47522 
   48600   -59017.415   -1398.8144   -2042.2298   -2021.9797   -132.23362    99.972562    99.972562    129.99451    1299231.9    300.76817 
   48700   -59015.515   -1398.6121   -2004.0876   -1966.8982   -224.85046    99.972562    99.972562    129.99451    1299231.9    299.34044 
   48800   -59016.599   -1346.1251   -1954.7541   -1843.1335   -240.48776    99.972562    99.972562    129.99451    1299231.9    299.78497 
   48900   -59018.473   -1397.1234   -2067.7898    -1902.997   -220.58359    99.972562    99.972562    129.99451    1299231.9    301.02313 
   49000   -59019.744   -1371.0171   -2121.0889   -1886.2775   -105.68476    99.972562    99.972562    129.99451    1299231.9    301.20334 
   49100   -59020.179   -1357.6832   -2118.0678   -1823.6972   -131.28464    99.972562    99.972562    129.99451    1299231.9    301.23666 
   49200   -59020.801   -1395.8135   -2122.6986   -1910.9127   -153.82942    99.972562    99.972562    129.99451    1299231.9    301.35426 
   49300   -59024.529   -1338.3372   -2014.5879   -1908.4051   -92.018748    99.972562    99.972562    129.99451    1299231.9    302.83724 
   49400   -59027.735   -1238.8273   -1886.8851   -1773.3333    -56.26335    99.972562    99.972562    129.99451    1299231.9     304.4418 
   49500   -59021.938   -1281.2242    -1948.257   -1807.6213   -87.794325    99.972562    99.972562    129.99451    1299231.9    300.44409 
   49600   -59018.299   -1285.7413   -1915.8735   -1869.0607   -72.289788    99.972562    99.972562    129.99451    1299231.9    298.12295 
   49700   -59019.194   -1297.8248    -1967.116   -1871.3411   -55.017393    99.972562    99.972562    129.99451    1299231.9    298.61867 
   49800   -59023.636    -1308.714   -1925.1743   -1897.6989   -103.26886    99.972562    99.972562    129.99451    1299231.9    300.93785 
   49900    -59021.69   -1417.7814   -2044.0784   -1967.3961   -241.86986    99.972562    99.972562    129.99451    1299231.9     299.6994 
   50000   -59024.923   -1362.7032   -2014.3452   -1909.4855   -164.27891    99.972562    99.972562    129.99451    1299231.9    301.37993 
Loop time of 592.946 on 16 procs for 50000 steps with 13384 atoms

Performance: 7.286 ns/day, 3.294 hours/ns, 84.325 timesteps/s
99.8% CPU use with 16 MPI tasks x no OpenMP threads

MPI task timing breakdown:
Section |  min time  |  avg time  |  max time  |%varavg| %total
---------------------------------------------------------------
Pair    | 0.13453    | 215.94     | 568.83     |1490.5 | 36.42
Neigh   | 0.0011392  | 0.6608     | 2.579      | 132.5 |  0.11
Comm    | 0.3922     | 110.05     | 360.65     |1335.6 | 18.56
Output  | 4.1093     | 4.1124     | 4.1184     |   0.1 |  0.69
Modify  | 4.3178     | 259.23     | 585.04     |1612.1 | 43.72
Other   |            | 2.953      |            |       |  0.50

Nlocal:    836.5 ave 3195 max 0 min
Histogram: 11 1 0 0 0 0 0 0 0 4
Nghost:    1208.31 ave 2999 max 0 min
Histogram: 8 0 0 0 0 0 4 0 1 3
Neighs:    56665.5 ave 221305 max 0 min
Histogram: 12 0 0 0 0 0 0 0 0 4

Total # of neighbors = 906648
Ave neighs/atom = 67.7412
Neighbor list builds = 297
Dangerous builds = 0

undump	relax
#uncompute myT
unfix	freeze
unfix	1
unfix	2
group	myG	delete
group	subG 	delete
variable dxx	delete
variable dyy	delete
variable dzz  	delete

next a
jump in.CuZr_deposit loop

group 	       myG  id <= 0
0 atoms in group myG
read_data      myNanoP.txt add append group myG
  orthogonal box = (-49.9863 -49.9863 -19.9973) to (49.9863 49.9863 109.997)
  2 by 2 by 4 MPI processor grid
  reading atoms ...
  884 atoms
  reading velocities ...
  884 velocities
group          subG subtract all myG
13384 atoms in group subG


variable       dxx   equal  "v_dispX-0.5*v_BoxL"
variable       dyy   equal  "v_dispY-0.5*v_BoxL"
variable       dzz   equal  "v_a*3+50"
print "${dzz}"
56

displace_atoms myG move ${dxx} ${dyy} ${dzz} units box               #make it uniform
displace_atoms myG move -2.12434637959995 ${dyy} ${dzz} units box               
displace_atoms myG move -2.12434637959995 28.7142443749971 ${dzz} units box               
displace_atoms myG move -2.12434637959995 28.7142443749971 56 units box               
#displace_atoms myG move 0 0  50 units box               #make it uniform
reset_ids
Resetting atom IDs ...

velocity        myG create 300 74657362 mom yes rot yes
velocity        myG set 0 0 -2 units box

velocity        subG create 300 74657362 mom yes rot yes
set             group bottomLayer vz  0
  1261 settings made for vz
fix             freeze bottomLayer setforce NULL NULL 0.0

#compute myT 	subG temp
#thermo_modify 	temp myT

dump           relax all custom 500 dump/dump${a}_*.atom id type x y z
dump           relax all custom 500 dump/dump2_*.atom id type x y z
fix            1 all nve
fix            2 bottomLayer temp/berendsen 200.0 200.0 0.1
run            50000
Per MPI rank memory allocation (min/avg/max) = 0.9183 | 3.378 | 5.783 Mbytes
Step PotEng Press Pxx Pyy Pzz Lx Ly Lz Volume Temp 
   50000   -62817.988    -1749.901   -2417.0583   -2313.9145   -518.73009    99.972562    99.972562    129.99451    1299231.9     279.9439 
   50100   -62840.799   -1405.3059   -2049.2519   -1987.9764   -178.68942    99.972562    99.972562    129.99451    1299231.9    292.21177 
   50200   -62839.393    -1197.623   -1854.2011   -1747.4322    8.7642925    99.972562    99.972562    129.99451    1299231.9    291.51315 
   50300   -62837.542   -1136.5911   -1838.3246   -1670.7996     99.35086    99.972562    99.972562    129.99451    1299231.9    290.84502 
   50400   -62841.764   -1164.0684   -1919.5064   -1707.5267    134.82777    99.972562    99.972562    129.99451    1299231.9     292.9132 
   50500    -62844.41   -1264.7255   -1885.2738   -1847.9662   -60.936409    99.972562    99.972562    129.99451    1299231.9    294.00953 
   50600   -62845.763   -1460.4536   -2145.0286   -1982.6235   -253.70883    99.972562    99.972562    129.99451    1299231.9    294.96209 
   50700   -62840.903   -1614.4516   -2341.4131   -2142.7203   -359.22149    99.972562    99.972562    129.99451    1299231.9    292.62398 
   50800    -62843.69   -1410.4541   -2109.9302   -2021.6523   -99.779921    99.972562    99.972562    129.99451    1299231.9     294.2353 
   50900    -62847.46   -1259.8764   -2020.7859   -1774.2709    15.427555    99.972562    99.972562    129.99451    1299231.9     295.6416 
   51000   -62845.455   -1139.1295   -1857.8918   -1688.5321    129.03539    99.972562    99.972562    129.99451    1299231.9    294.60792 
   51100    -62841.54   -1113.6047   -1780.3909   -1710.6237    150.20057    99.972562    99.972562    129.99451    1299231.9    292.47296 
   51200   -62845.158   -1256.3293   -1928.9386   -1778.9156   -61.133619    99.972562    99.972562    129.99451    1299231.9    294.44509 
   51300   -62850.888   -1521.9969   -2197.4328   -2058.7021   -309.85588    99.972562    99.972562    129.99451    1299231.9     297.8367 
   51400   -62847.325    -1644.075   -2364.3989   -2169.4579   -398.36819    99.972562    99.972562    129.99451    1299231.9    295.97469 
   51500   -62841.483   -1556.3081   -2176.0971   -2093.8239   -399.00347    99.972562    99.972562    129.99451    1299231.9    293.12063 
   51600   -62841.284   -1370.5703   -1988.0412    -1894.381   -229.28885    99.972562    99.972562    129.99451    1299231.9    293.08845 
   51700   -62847.971   -1277.2108   -1965.2333   -1802.1049   -64.294313    99.972562    99.972562    129.99451    1299231.9    296.64373 
   51800   -62842.253   -1247.2151   -1872.5625   -1781.2562   -87.826591    99.972562    99.972562    129.99451    1299231.9    292.92956 
   51900   -62840.298   -1280.9454    -2000.836   -1776.2343   -65.765848    99.972562    99.972562    129.99451    1299231.9    292.26823 
   52000   -62844.592   -1395.2135    -2132.058   -1896.3691   -157.21326    99.972562    99.972562    129.99451    1299231.9    294.92966 
   52100   -62845.501   -1442.9859   -2191.7783   -1961.7299   -175.44933    99.972562    99.972562    129.99451    1299231.9    295.57456 
   52200   -62843.667   -1457.7184   -2122.4098      -1998.8   -251.94537    99.972562    99.972562    129.99451    1299231.9    294.66348 
   52300   -62845.267   -1341.7924   -2031.3831   -1871.7659   -122.22828    99.972562    99.972562    129.99451    1299231.9    295.22492 
   52400   -62847.297    -1292.834   -2014.4999   -1857.4594   -6.5427522    99.972562    99.972562    129.99451    1299231.9    296.41507 
   52500   -62847.032   -1283.6418   -2000.0604   -1833.0149   -17.850137    99.972562    99.972562    129.99451    1299231.9    295.98558 
   52600   -62840.496   -1318.2122   -2032.1375   -1795.2969   -127.20223    99.972562    99.972562    129.99451    1299231.9     291.9598 
[...]
  486800   -94909.625   -1096.6551   -1723.7541   -1584.7687    18.557558    99.972562    99.972562    129.99451    1299231.9    315.03599 
  486900   -94910.983   -1101.9442   -1692.3518   -1650.3724    36.891575    99.972562    99.972562    129.99451    1299231.9    315.54033 
  487000    -94914.36   -1070.7397   -1596.6137   -1560.5378   -55.067757    99.972562    99.972562    129.99451    1299231.9    316.60453 
  487100    -94912.92   -1031.0252   -1514.9901   -1603.6302    25.544823    99.972562    99.972562    129.99451    1299231.9    316.03101 
  487200   -94909.459   -1048.3857    -1547.497   -1652.3691    54.708896    99.972562    99.972562    129.99451    1299231.9    314.59027 
  487300   -94915.755   -978.37358   -1464.1318   -1571.6642    100.67522    99.972562    99.972562    129.99451    1299231.9    316.64472 
  487400     -94918.1   -1046.2977   -1599.7907    -1604.951     65.84862    99.972562    99.972562    129.99451    1299231.9    317.24846 
  487500   -94914.767      -1088.6   -1578.3327   -1673.7878   -13.679397    99.972562    99.972562    129.99451    1299231.9    315.87464 
  487600   -94913.083   -1139.6184    -1639.299   -1741.4926   -38.063653    99.972562    99.972562    129.99451    1299231.9    315.08689 
  487700   -94908.569   -1234.6452   -1820.1063   -1699.0524   -184.77671    99.972562    99.972562    129.99451    1299231.9    313.35218 
  487800   -94920.848   -1332.4396   -1780.5542   -1858.7052   -358.05944    99.972562    99.972562    129.99451    1299231.9    317.69528 
  487900   -94915.408   -1372.2684   -1995.4751    -1804.244   -317.08621    99.972562    99.972562    129.99451    1299231.9    315.64509 
  488000   -94913.924   -1401.2003   -1887.4823   -1840.0173   -476.10133    99.972562    99.972562    129.99451    1299231.9    314.96545 
  488100    -94913.94   -1314.6793   -1834.1898    -1766.959   -342.88924    99.972562    99.972562    129.99451    1299231.9    314.57878 
  488200   -94917.279   -1297.3494   -1724.6397   -1804.0704   -363.33824    99.972562    99.972562    129.99451    1299231.9    315.59901 
  488300   -94922.692   -1305.3801   -1795.5032   -1703.3804   -417.25668    99.972562    99.972562    129.99451    1299231.9    317.51323 
  488400   -94921.481   -1275.9502   -1734.4107   -1713.6731   -379.76681    99.972562    99.972562    129.99451    1299231.9    316.79026 
  488500   -94916.265   -1232.3169   -1737.3126   -1755.8066   -203.83164    99.972562    99.972562    129.99451    1299231.9    314.72631 
  488600   -94913.284   -1256.9352   -1749.3514   -1731.0589   -290.39525    99.972562    99.972562    129.99451    1299231.9    313.45054 
  488700   -94915.272   -1229.5932   -1719.4771   -1768.2355   -201.06706    99.972562    99.972562    129.99451    1299231.9    313.98328 
  488800   -94922.122   -1235.9301   -1718.9709   -1790.6202    -198.1993    99.972562    99.972562    129.99451    1299231.9    316.62642 
  488900   -94908.318   -1175.6782   -1623.0667   -1714.3416   -189.62615    99.972562    99.972562    129.99451    1299231.9     311.7712 
  489000   -94920.033   -1208.6978   -1665.9167   -1753.7209   -206.45589    99.972562    99.972562    129.99451    1299231.9    316.07859 
  489100    -94927.28   -1169.9922   -1565.2323    -1696.984   -247.76034    99.972562    99.972562    129.99451    1299231.9    318.29137 
  489200   -94921.378   -1174.2353   -1680.2043   -1622.4343   -220.06737    99.972562    99.972562    129.99451    1299231.9    315.83874 
  489300   -94919.988   -1073.4993   -1575.4139   -1549.5818   -95.502309    99.972562    99.972562    129.99451    1299231.9     315.2331 
  489400   -94923.441   -1144.2687   -1657.6744   -1646.3191   -128.81246    99.972562    99.972562    129.99451    1299231.9    316.39251 
  489500   -94913.709   -961.38846   -1478.4774   -1457.9982    52.310234    99.972562    99.972562    129.99451    1299231.9    312.91787 
  489600   -94916.511   -989.52956   -1553.5655   -1461.2777    46.254537    99.972562    99.972562    129.99451    1299231.9    313.76667 
  489700   -94920.576   -1011.0154   -1588.1099   -1423.7958   -21.140473    99.972562    99.972562    129.99451    1299231.9    315.10785 
  489800   -94914.499   -1066.2657   -1576.0212   -1627.6223    4.8464507    99.972562    99.972562    129.99451    1299231.9    313.14708 
  489900   -94923.495   -1179.3802   -1690.8704   -1709.3826   -137.88761    99.972562    99.972562    129.99451    1299231.9    316.37393 
  490000   -94919.682   -1145.3112   -1675.3807   -1673.2528   -87.300077    99.972562    99.972562    129.99451    1299231.9     314.6199 
  490100   -94918.835   -1156.2152   -1738.1788    -1642.585   -87.881824    99.972562    99.972562    129.99451    1299231.9    314.33033 
  490200   -94930.884   -1122.6855   -1551.8405   -1730.4992   -85.716769    99.972562    99.972562    129.99451    1299231.9    318.61314 
  490300   -94918.192   -1121.5473     -1720.54   -1635.2707   -8.8312831    99.972562    99.972562    129.99451    1299231.9    314.33752 
  490400   -94922.781   -1160.3109   -1764.1511   -1628.9696   -87.812034    99.972562    99.972562    129.99451    1299231.9     316.0632 
  490500   -94927.062   -1096.8487   -1575.2008     -1580.06   -135.28526    99.972562    99.972562    129.99451    1299231.9    317.55804 
  490600   -94918.071   -1141.9962    -1557.829   -1662.2378   -205.92168    99.972562    99.972562    129.99451    1299231.9    314.18508 
  490700   -94918.834   -1152.1662   -1608.4765   -1685.6378   -162.38445    99.972562    99.972562    129.99451    1299231.9    314.57825 
  490800   -94920.513   -1103.8334   -1551.4221   -1575.5428   -184.53531    99.972562    99.972562    129.99451    1299231.9     315.0635 
  490900   -94924.631    -1144.851    -1634.293   -1708.3178   -91.942196    99.972562    99.972562    129.99451    1299231.9    316.35397 
  491000   -94922.125    -1096.595   -1598.4105   -1657.5042   -33.870264    99.972562    99.972562    129.99451    1299231.9    315.21997 
  491100   -94921.775   -1232.6385   -1725.1115   -1730.2433   -242.56052    99.972562    99.972562    129.99451    1299231.9    314.75485 
  491200   -94924.865   -1269.9006   -1751.2532   -1871.0731   -187.37556    99.972562    99.972562    129.99451    1299231.9    315.47675 
  491300   -94926.511   -1320.6852   -1811.3904   -1840.5166   -310.14859    99.972562    99.972562    129.99451    1299231.9    315.72235 
  491400   -94925.694   -1201.8993   -1692.0116   -1627.9553   -285.73099    99.972562    99.972562    129.99451    1299231.9     315.1882 
  491500    -94928.55   -1029.7139    -1512.802   -1487.0506   -89.288928    99.972562    99.972562    129.99451    1299231.9    316.34355 
  491600   -94923.294   -1058.3399   -1617.5198   -1548.8128   -8.6869941    99.972562    99.972562    129.99451    1299231.9     314.1889 
  491700   -94925.705    -1050.034   -1635.4934   -1504.0779   -10.530569    99.972562    99.972562    129.99451    1299231.9    314.88198 
  491800   -94926.714   -1020.3312   -1509.1605   -1656.2416    104.40858    99.972562    99.972562    129.99451    1299231.9    315.14008 
  491900   -94933.872   -1150.8708   -1755.1467   -1650.0726   -47.393162    99.972562    99.972562    129.99451    1299231.9    317.77776 
  492000   -94930.268   -1178.7973   -1759.7304   -1647.7038   -128.95777    99.972562    99.972562    129.99451    1299231.9    316.37547 
  492100   -94931.703   -1147.7737   -1717.6062    -1685.677   -40.037868    99.972562    99.972562    129.99451    1299231.9    316.59039 
  492200   -94920.377   -1225.6207   -1855.0665   -1668.5897   -153.20594    99.972562    99.972562    129.99451    1299231.9    312.30485 
  492300   -94933.416   -1168.3191   -1711.8887   -1648.8259   -144.24277    99.972562    99.972562    129.99451    1299231.9    316.95857 
  492400   -94921.111   -1025.1872   -1605.1435   -1523.7578    53.339598    99.972562    99.972562    129.99451    1299231.9    312.37338 
  492500   -94932.897   -1003.3198   -1489.0574    -1591.112    70.210058    99.972562    99.972562    129.99451    1299231.9    316.40526 
  492600   -94927.705   -929.25964    -1452.286   -1392.0052    56.512328    99.972562    99.972562    129.99451    1299231.9    314.21495 
  492700   -94931.028    -922.7607   -1507.3467   -1448.0318    187.09635    99.972562    99.972562    129.99451    1299231.9    315.11717 
  492800   -94930.053   -1013.1766    -1543.643   -1571.2664    75.379721    99.972562    99.972562    129.99451    1299231.9    314.79716 
  492900   -94933.205   -1060.0777   -1715.2828   -1461.4448   -3.5056251    99.972562    99.972562    129.99451    1299231.9    315.78188 
  493000    -94928.93   -959.82633   -1588.2537   -1350.3449    59.119659    99.972562    99.972562    129.99451    1299231.9    314.07424 
  493100   -94925.398   -966.51789   -1522.0645   -1413.7505    36.261377    99.972562    99.972562    129.99451    1299231.9    312.77627 
  493200   -94934.135   -1145.9484   -1661.7349   -1599.4783   -176.63202    99.972562    99.972562    129.99451    1299231.9    315.71848 
  493300   -94933.902    -1130.368   -1640.3429   -1595.5246   -155.23663    99.972562    99.972562    129.99451    1299231.9    315.05684 
  493400   -94927.928   -1073.9682   -1626.6627   -1554.8127   -40.429152    99.972562    99.972562    129.99451    1299231.9     312.6386 
  493500   -94933.133     -1170.25   -1610.6814   -1730.8447    -169.2241    99.972562    99.972562    129.99451    1299231.9    314.54238 
  493600   -94931.553   -1164.3453   -1707.5045   -1710.0809   -75.450422    99.972562    99.972562    129.99451    1299231.9    313.82045 
  493700   -94932.498   -1260.7281   -1869.1646   -1761.3786   -151.64106    99.972562    99.972562    129.99451    1299231.9     313.7979 
  493800   -94932.454   -1268.2711   -1848.4337    -1674.654   -281.72576    99.972562    99.972562    129.99451    1299231.9    313.59403 
  493900   -94933.111   -1355.8675   -1857.8796   -1798.2824   -411.44045    99.972562    99.972562    129.99451    1299231.9    313.68461 
  494000   -94930.392   -1386.2636    -1959.739   -1742.4187   -456.63312    99.972562    99.972562    129.99451    1299231.9    312.56157 
  494100   -94924.441   -1411.3445   -1938.7479   -1852.9973   -442.28843    99.972562    99.972562    129.99451    1299231.9    310.38909 
  494200   -94933.578   -1394.5375   -1792.3437    -1797.166   -594.10282    99.972562    99.972562    129.99451    1299231.9    313.65085 
  494300   -94932.765    -1389.053   -1846.1871   -1861.0093   -459.96265    99.972562    99.972562    129.99451    1299231.9    313.15335 
  494400   -94933.677   -1352.2118   -1829.2253   -1776.7576   -450.65247    99.972562    99.972562    129.99451    1299231.9    313.26343 
  494500   -94930.828   -1334.7083    -1900.851   -1656.9548   -446.31926    99.972562    99.972562    129.99451    1299231.9    312.43885 
  494600   -94940.103   -1311.1466   -1846.6184   -1757.8741   -328.94721    99.972562    99.972562    129.99451    1299231.9    315.88987 
  494700   -94932.029   -1363.8067    -1942.997   -1739.9201   -408.50296    99.972562    99.972562    129.99451    1299231.9    312.91306 
  494800   -94931.808   -1283.1977   -1761.6193   -1812.9114   -275.06245    99.972562    99.972562    129.99451    1299231.9     312.8301 
  494900   -94928.694   -1185.9021   -1702.0107   -1708.4423    -147.2533    99.972562    99.972562    129.99451    1299231.9    311.66935 
  495000   -94939.342   -1129.6018   -1661.5124   -1660.6075   -66.685366    99.972562    99.972562    129.99451    1299231.9    315.29783 
  495100   -94934.901   -1001.1746   -1460.6004   -1542.7738  -0.14955643    99.972562    99.972562    129.99451    1299231.9    313.57162 
  495200   -94932.522   -1051.9149   -1526.9504   -1569.8751   -58.919079    99.972562    99.972562    129.99451    1299231.9    312.87409 
  495300   -94937.242   -1069.2233   -1585.3794   -1549.3536    -72.93701    99.972562    99.972562    129.99451    1299231.9    314.13771 
  495400   -94942.092   -1026.7982   -1688.3472    -1457.499    65.451481    99.972562    99.972562    129.99451    1299231.9    315.56863 
  495500   -94930.537   -1009.3951   -1621.1982   -1486.5704     79.58328    99.972562    99.972562    129.99451    1299231.9    311.01385 
  495600   -94940.595   -979.84394   -1499.7322   -1442.0279    2.2282807    99.972562    99.972562    129.99451    1299231.9    314.64394 
  495700   -94937.757   -958.20461   -1444.1693   -1508.7879    78.343434    99.972562    99.972562    129.99451    1299231.9    313.47836 
  495800   -94948.395   -999.92979   -1645.0599   -1474.6371    119.90763    99.972562    99.972562    129.99451    1299231.9    317.18607 
  495900   -94942.351    -1071.018   -1686.4237   -1623.3038    96.673367    99.972562    99.972562    129.99451    1299231.9    315.05933 
  496000   -94938.418   -1052.6705   -1618.2639   -1609.0754    69.327749    99.972562    99.972562    129.99451    1299231.9    313.49087 
  496100    -94933.42   -993.42292   -1517.8663   -1569.5954    107.19299    99.972562    99.972562    129.99451    1299231.9    311.50515 
  496200   -94936.651    -1002.338   -1436.7683   -1635.4601    65.214424    99.972562    99.972562    129.99451    1299231.9    312.52516 
  496300   -94941.327   -1073.3236    -1527.166   -1578.2027   -114.60202    99.972562    99.972562    129.99451    1299231.9    314.20828 
  496400   -94938.591   -1106.1487    -1574.722   -1656.5439   -87.180236    99.972562    99.972562    129.99451    1299231.9    313.17545 
  496500   -94938.564   -1108.1493   -1613.6982   -1589.0885   -121.66127    99.972562    99.972562    129.99451    1299231.9    313.07656 
  496600   -94941.421   -1131.7958   -1757.1078   -1596.2336   -42.046111    99.972562    99.972562    129.99451    1299231.9    314.02879 
  496700   -94938.819   -1215.5955   -1815.6184   -1726.4077   -104.76052    99.972562    99.972562    129.99451    1299231.9    313.00274 
  496800    -94938.31    -1216.809   -1817.1737   -1631.9966   -201.25671    99.972562    99.972562    129.99451    1299231.9    312.50336 
  496900   -94933.524   -1269.4858   -1895.7381   -1731.7128   -181.00634    99.972562    99.972562    129.99451    1299231.9     310.7673 
  497000   -94940.697   -1234.9226   -1824.7844   -1629.2415   -250.74188    99.972562    99.972562    129.99451    1299231.9    313.45153 
  497100   -94942.298   -1186.5788   -1730.1341   -1658.9503    -170.6518    99.972562    99.972562    129.99451    1299231.9     314.0131 
  497200   -94936.927   -1088.5031   -1619.7362   -1619.4806   -26.292353    99.972562    99.972562    129.99451    1299231.9    311.81912 
  497300   -94939.058   -1148.1255   -1672.8752   -1567.8425   -203.65897    99.972562    99.972562    129.99451    1299231.9    312.40165 
  497400   -94935.053   -1200.8302   -1804.4408   -1719.5238   -78.526016    99.972562    99.972562    129.99451    1299231.9    310.78148 
  497500    -94940.37   -1135.1248   -1726.6157   -1658.2701   -20.488484    99.972562    99.972562    129.99451    1299231.9     312.5697 
  497600   -94940.147   -1200.2553   -1810.5557   -1554.6803   -235.52971    99.972562    99.972562    129.99451    1299231.9    312.28665 
  497700   -94936.548   -1245.3227   -1816.2059   -1649.1231    -270.6391    99.972562    99.972562    129.99451    1299231.9    310.69214 
  497800   -94940.587   -1192.5626   -1761.9682   -1715.8731   -99.846631    99.972562    99.972562    129.99451    1299231.9    311.86885 
  497900   -94942.908    -1166.129   -1741.3081   -1695.6674   -61.411368    99.972562    99.972562    129.99451    1299231.9    312.22783 
  498000   -94945.398   -1151.8778   -1686.3291   -1652.0535   -117.25092    99.972562    99.972562    129.99451    1299231.9    312.74543 
  498100   -94940.386   -1108.0811   -1689.1298   -1628.2594   -6.8542439    99.972562    99.972562    129.99451    1299231.9    310.92317 
  498200   -94945.544   -1124.0527   -1667.4129   -1631.6442   -73.100981    99.972562    99.972562    129.99451    1299231.9    312.51757 
  498300   -94944.978   -1088.5384   -1637.6581   -1614.7104   -13.246589    99.972562    99.972562    129.99451    1299231.9    312.24696 
  498400   -94947.951   -1193.2145   -1711.9428   -1718.7297   -148.97105    99.972562    99.972562    129.99451    1299231.9    313.04569 
  498500   -94935.735   -1143.5652    -1779.068   -1672.3236    20.695993    99.972562    99.972562    129.99451    1299231.9    308.81872 
  498600   -94945.651   -1213.0744   -1695.0088   -1800.3833   -143.83109    99.972562    99.972562    129.99451    1299231.9    312.25688 
  498700    -94945.66   -1213.5072   -1725.9238   -1764.7912   -149.80679    99.972562    99.972562    129.99451    1299231.9    312.23796 
  498800   -94941.606   -1143.6236   -1710.6761    -1645.274   -74.920605    99.972562    99.972562    129.99451    1299231.9    310.76861 
  498900   -94944.982   -1157.7036   -1688.2051    -1728.235   -56.670587    99.972562    99.972562    129.99451    1299231.9    311.96961 
  499000   -94948.099   -1114.7207    -1683.895    -1625.333    -34.93416    99.972562    99.972562    129.99451    1299231.9     312.7587 
  499100   -94938.703    -1154.978    -1699.801   -1675.1894   -89.943656    99.972562    99.972562    129.99451    1299231.9    309.43818 
  499200   -94948.768   -1275.5063   -1689.5149   -1879.8219   -257.18202    99.972562    99.972562    129.99451    1299231.9    312.94508 
  499300   -94941.173   -1313.4721   -1904.3272   -1691.6808   -344.40833    99.972562    99.972562    129.99451    1299231.9    310.24981 
  499400   -94943.167   -1372.1868   -1863.0685   -1822.6535   -430.83828    99.972562    99.972562    129.99451    1299231.9    311.07119 
  499500   -94945.962   -1409.9043   -1905.9237   -1876.8962   -446.89288    99.972562    99.972562    129.99451    1299231.9     312.0107 
  499600   -94948.956   -1378.8145   -1898.7761   -1854.1928   -383.47447    99.972562    99.972562    129.99451    1299231.9    312.71079 
  499700   -94949.678    -1333.839   -1800.5732   -1862.4314    -338.5125    99.972562    99.972562    129.99451    1299231.9    312.77505 
  499800   -94945.675    -1340.095   -1783.2918   -1899.0923   -337.90082    99.972562    99.972562    129.99451    1299231.9    311.07333 
  499900   -94946.518   -1470.3466   -2072.5897    -1938.841   -399.60908    99.972562    99.972562    129.99451    1299231.9    311.16682 
  500000   -94951.846    -1381.211   -1961.2907   -1878.3249   -304.01738    99.972562    99.972562    129.99451    1299231.9    312.95115 
Loop time of 724.014 on 16 procs for 50000 steps with 21340 atoms

Performance: 5.967 ns/day, 4.022 hours/ns, 69.059 timesteps/s
99.8% CPU use with 16 MPI tasks x no OpenMP threads

MPI task timing breakdown:
Section |  min time  |  avg time  |  max time  |%varavg| %total
---------------------------------------------------------------
Pair    | 60.373     | 366.33     | 696.38     |1188.0 | 50.60
Neigh   | 0.0012965  | 1.1855     | 3.5499     | 126.7 |  0.16
Comm    | 11.947     | 188.2      | 437.9      |1232.0 | 25.99
Output  | 5.5174     | 5.5196     | 5.5253     |   0.1 |  0.76
Modify  | 3.7015     | 159.85     | 621.03     |2091.2 | 22.08
Other   |            | 2.94       |            |       |  0.41

Nlocal:    1333.75 ave 3503 max 0 min
Histogram: 8 0 0 0 1 2 1 0 0 4
Nghost:    2244.75 ave 4734 max 0 min
Histogram: 8 0 0 0 0 0 0 0 4 4
Neighs:    93557.4 ave 271012 max 0 min
Histogram: 8 0 0 1 3 0 0 0 0 4

Total # of neighbors = 1496918
Ave neighs/atom = 70.1461
Neighbor list builds = 307
Dangerous builds = 0

undump	relax
#uncompute myT
unfix	freeze
unfix	1
unfix	2
group	myG	delete
group	subG 	delete
variable dxx	delete
variable dyy	delete
variable dzz  	delete

next a
jump in.CuZr_deposit loop
Total wall time: 1:53:10
