LAMMPS data file via write_data, version 5 Jun 2019, timestep = 570000

884 atoms
2 atom types

-2.7057867000000002e+01 2.7057867000000002e+01 xlo xhi
-2.7057867000000002e+01 2.7057867000000002e+01 ylo yhi
-2.7057867000000002e+01 2.7057867000000002e+01 zlo zhi

Masses

1 91.22
2 63.55

Atoms # atomic

23 2 -1.0203900967191858e+01 -5.8763042183259335e+00 -7.7134356871398371e+00 0 1 0
73 2 -1.1657012243327660e+01 -5.1920140982617404e+00 -5.8446478186223656e+00 0 0 0
192 2 -1.3585858970698755e+01 -3.2794433064364958e+00 -6.0053339774844714e+00 0 0 0
134 2 -1.1545320064173939e+01 -3.4169002032412714e+00 -7.4468422464139516e+00 0 0 0
801 1 -1.2759240471023672e+01 -7.6630862602844885e-01 -6.7422560486610896e+00 0 0 0
349 2 -9.5643774904016077e+00 -3.0870292071865406e+00 -9.1842833973082492e+00 1 1 -1
770 1 -9.6727641214300668e+00 -8.8728375134492643e-01 -7.1198565389818418e+00 0 0 -1
180 2 -1.1497327612802001e+01 -1.2611993952484533e+00 -9.1253877490094020e+00 1 0 0
509 1 -9.2339145279491230e+00 -5.9440398163183106e-01 -1.0325708757532086e+01 0 0 0
742 1 -9.0485300452147843e+00 -3.9761802602183898e+00 -6.3527768564965950e+00 0 0 0
267 1 -9.9152120953429979e+00 -1.0041200652842267e+01 -1.8082867657600654e+00 0 0 0
363 2 -9.7433660274432867e+00 -8.2146410327990580e+00 -3.8002431185154562e+00 0 0 -1
388 2 -9.4552347500869871e+00 -6.2554844038210673e+00 -5.1649795389286082e+00 0 1 0
298 2 -1.1499845660780867e+01 -6.5152896089747552e+00 -3.2583831818720341e+00 0 0 0
854 2 -9.2672756610332065e+00 -6.1710321634296026e+00 -2.3771740532418559e+00 0 0 0
255 2 -1.0902961691320861e+01 -7.6532317842139106e+00 -1.0991002050530234e+00 0 1 0
868 1 -1.1629665166301082e+01 -4.8831263379179006e+00 -9.6323166514289149e-01 0 0 0
678 2 -1.0428610282011279e+01 -4.3547433426684474e+00 -3.6244018066748924e+00 0 -1 -1
728 1 -1.3796658501521774e+01 -1.6260436204736690e+00 -3.8440369836023720e+00 0 0 0
568 2 -1.3900559982223458e+01 -3.3355011550522278e+00 -1.5418902229709575e+00 0 0 0
259 2 -1.3831681461832209e+01 -8.6228610158575936e-01 -1.0827783617663280e+00 0 0 0
857 2 -1.2759458337637787e+01 -4.0304938774223613e+00 -3.4843767591010697e+00 -1 0 0
619 2 -1.1166876316381781e+01 -2.7530195166150460e+00 -5.2310388521710758e+00 0 -1 0
325 1 -1.1159852679013651e+01 -2.0234156552249507e+00 -2.2506597304698635e+00 0 0 0
162 2 -1.1105319540330594e+01 -4.7683248518636900e-01 -4.5478852481698366e+00 -1 0 0
7 2 -9.1227976347470712e+00 -2.3299470005897236e+00 -3.9243181927276760e+00 0 0 0
118 2 -1.3576781669818311e+01 -4.5519777640972130e+00 9.1501839007762942e-01 0 0 1
415 2 -1.0875780774811526e+01 -8.9991278101342509e+00 3.6021098383044241e+00 0 0 0
314 1 -9.8793504810482755e+00 -9.0691565530718226e+00 1.0769875388628702e+00 0 0 0
126 2 -1.2135901979647441e+01 -1.4805544260821830e+00 2.1716564693488039e+00 0 0 1
209 1 -1.1592749410007546e+01 -6.5985435152812357e+00 1.7246397729843708e+00 0 0 0
287 2 -9.7973184107416422e+00 -4.8153732069786930e+00 3.0876846313702115e+00 0 0 0
193 1 -1.1526848698050204e+01 -6.6057590184896604e+00 4.7235973978428323e+00 0 0 0
840 2 -1.4456772466103596e+01 -2.2726067957554199e+00 1.4862982591936373e+00 0 0 -1
563 1 -1.3862160919969773e+01 -8.6851725261005308e-01 4.1850217443524755e+00 0 0 0
481 1 -9.7107594843454930e+00 -2.2965862748128254e+00 3.6978641120183159e-01 0 0 1
170 1 -1.0406332614186036e+01 -2.0386134116915144e+00 3.8395274267836093e+00 0 0 0
372 2 -1.2538004088571963e+01 -2.3636043894782550e+00 9.0442260716488476e-02 0 0 0
692 2 -1.1292102758691199e+01 -3.9306399449091192e+00 1.5229732093123016e+00 0 0 1
8 2 -9.1874128005246831e+00 -2.6659569838029068e-01 2.0400806512575809e+00 0 0 0
375 1 -1.2900830425066028e+01 -4.0361229370500888e+00 3.5963800853500478e+00 0 0 -1
874 2 -9.0543588697925443e+00 -5.9438478147844549e+00 5.4065286840680455e+00 0 -1 -1
687 2 -1.2992545721962165e+01 -4.5987853355546715e+00 6.4156388380694223e+00 0 0 0
512 1 -1.0865848868086083e+01 -6.2497898607735900e+00 7.6389379088067688e+00 0 0 0
740 2 -9.1400954192035417e+00 -1.8341446607858118e+00 6.2842383988232653e+00 0 0 0
29 2 -1.1545497537915038e+01 -8.0133377018146823e-01 5.7569380455184334e+00 0 0 0
705 2 -1.0504436363653896e+01 -1.3479181948931238e+00 1.0231690352148556e+01 0 -1 0
714 2 -1.0684050090322852e+01 -4.0097960406236073e+00 5.6605277873210875e+00 0 -1 -1
786 2 -1.2908632611565150e+01 -2.8954408682567179e+00 6.2394659193196196e+00 0 0 0
434 1 -1.0889044623220604e+01 -2.8354070225841288e+00 8.1802977250296323e+00 0 0 0
474 1 -9.2238563945575276e+00 8.1726111690589178e+00 -6.2605311924894131e+00 0 1 0
477 2 -1.3385890358772112e+01 1.8052504531419293e+00 -7.4890948366815415e+00 0 0 0
55 1 -1.1097035202237153e+01 1.6044616949399888e+00 -9.0972869867765063e+00 0 0 0
217 2 -9.6066392657404958e+00 3.5073895236785582e+00 -7.4038897348849835e+00 0 0 0
595 2 -1.2105534984314518e+01 4.0183591383047794e+00 -7.6187172277305875e+00 0 1 -1
472 1 -9.5533456336194007e+00 4.3677716589083886e+00 -9.7946607474150067e+00 0 -1 0
699 1 -1.0980584871494187e+01 1.6445000869062496e+00 -5.9898209935671298e+00 0 0 0
28 2 -1.0442623834478244e+01 4.3300229399236692e+00 -5.5201076441255124e+00 1 0 0
406 2 -1.3335300458234691e+01 3.3720022698214067e+00 -5.5043848933474750e+00 0 -1 0
549 1 -1.2309846395963916e+01 6.2029624585856613e+00 -5.4130552488925447e+00 0 0 0
616 2 -1.0340020188254661e+01 5.9700465517922900e+00 -7.4903396644538880e+00 0 0 1
184 2 -9.2798018843940540e+00 1.9602968021059100e+00 -1.0958551304360272e+01 0 1 0
414 2 -1.4082385229946768e+01 9.9129472212316039e-01 -5.1023360794023906e+00 1 0 0
4 2 -1.4634311215540579e+01 2.9670368884930927e+00 -3.3754164585351392e+00 -1 0 0
871 2 -1.5146239006437968e+01 7.0250616357008200e-01 -2.7880158037207852e+00 0 0 0
417 2 -1.4023918151159963e+01 1.5246363223861290e+00 -6.5602541149849292e-01 0 0 0
1 2 -1.3392925215934673e+01 3.9415880327466444e+00 -1.4306966443366689e+00 0 0 0
582 1 -1.2554263870229605e+01 1.1558866991075496e+00 -2.9760031554554311e+00 -1 0 0
791 1 -9.7081574007848719e+00 3.1385749643266170e+00 -3.3004636534586584e+00 0 -1 0
659 2 -1.1240466799141997e+01 2.7150344284554762e+00 -1.0244601677293903e+00 -1 0 0
501 2 -1.2113026779442500e+01 4.0317976984279360e+00 -3.6931637451739312e+00 0 0 0
747 2 -1.0082922440670815e+01 5.6151032209674012e-01 -2.1760580221558130e+00 0 0 0
6 2 -1.4302757355147282e+01 5.1895798627532308e+00 -3.8527329946493305e+00 1 0 0
490 2 -1.1111641085391231e+01 5.0034940381151261e+00 -1.6882423562496522e+00 1 0 1
640 1 -1.2763567141088870e+01 6.7883514361859802e+00 -2.4837720119162174e+00 1 -1 0
362 1 -9.6812376111428513e+00 6.3366972308875145e+00 -3.9265599657755739e+00 0 0 0
626 2 -1.1333745356685316e+01 8.4834946111708032e+00 -4.2469138682038032e+00 0 -1 0
67 2 -1.0028428653267179e+01 7.2303492544954766e+00 -1.5037806778955809e+00 0 0 0
872 2 -1.1355477336737936e+01 9.1649453537838141e+00 -1.7903873767990561e+00 0 0 0
346 2 -1.3063193140499004e+01 5.7856974582438738e+00 2.1130298485154045e-01 0 0 0
613 2 -1.4218551298312926e+01 1.7854493261533766e+00 3.7297582678924206e+00 0 0 -1
3 2 -1.0084732944939002e+01 2.2563408975288226e+00 1.4371303752699691e+00 0 1 0
242 1 -1.2932107736847028e+01 2.9546128289913112e+00 1.4481946576020504e+00 0 0 0
99 2 -1.0421652909242766e+01 4.0380710433993352e+00 3.3524038203482385e+00 -1 0 0
357 1 -1.1367889189303993e+01 1.0397889545855008e+00 3.4114137106949869e+00 0 0 0
196 1 -1.1464315727747262e+01 2.6401245177150601e-01 2.3329507792531776e-01 0 1 0
717 2 -1.2603400768559354e+01 3.4003663542137548e+00 4.1750700530157028e+00 0 0 0
294 1 -9.3627790316499020e+00 6.8695062835139611e+00 3.1084038912321033e+00 0 0 0
237 1 -1.1299756548621424e+01 7.8130807419690580e+00 7.8725217299842920e-01 0 0 0
283 1 -1.0338475453195677e+01 4.8924796843657967e+00 6.9099967445756005e-01 0 0 0
454 2 -1.2358070002983126e+01 5.4902236496667287e+00 2.6554523638381262e+00 0 0 0
621 1 -1.1608922178784010e+01 5.9372691783432892e+00 5.2088860723488484e+00 0 0 0
738 2 -9.2346403826135273e+00 9.3351868098886062e+00 -3.5578249008825833e+00 0 0 0
85 2 -1.3760267587729620e+01 1.8792231894606634e-01 1.6222082956496766e+00 0 0 0
463 2 -9.2326657345576102e+00 9.2994702271645924e+00 -7.7117761497436377e-01 0 0 0
851 2 -1.2457198426121085e+01 3.9717967534841931e+00 6.9547383810667975e+00 -1 -1 0
299 1 -1.0407133322844929e+01 2.9665005787015977e+00 5.9272089528406173e+00 1 0 0
342 1 -1.0795031679485799e+01 3.1128567560406006e+00 8.9196258021171282e+00 0 0 0
836 2 -1.2630009150269098e+01 1.4144688395241629e+00 5.8376134855676352e+00 0 0 0
535 2 -9.3089091587306392e+00 4.0777931981755466e-01 5.6294942642001944e+00 0 0 0
404 2 -9.4353375715080805e+00 9.6422417660612525e-01 1.0295072372181213e+01 0 1 -1
883 1 -1.1047892658003294e+01 2.8955767071096200e-01 8.0928083134316697e+00 0 -1 0
307 2 -1.0562333189506917e+01 5.5439976217290585e+00 7.5838579765297407e+00 0 1 0
748 2 -9.8356946596763404e+00 7.8377073189174284e+00 5.6442674323766067e+00 0 -1 0
884 2 -9.0314677219719037e+00 5.3419800957911523e+00 5.4643432825604865e+00 0 0 0
21 2 -9.0449315111596196e+00 5.7971334561478569e+00 9.4924525855316055e+00 0 1 0
57 2 -3.7533344122593242e+00 -6.2144852582956558e+00 -1.1846276559854227e+01 0 0 0
479 1 -1.0600838567404880e+00 -5.4205612332229558e+00 -1.2190518323122205e+01 0 0 0
26 2 -4.0452706624935724e+00 -4.0544738975769192e+00 -1.3439423062821472e+01 0 0 0
810 2 -1.9801010398392651e+00 -7.9867566585574465e+00 -1.1310571270245733e+01 0 0 0
239 2 3.1686843496326900e-01 -7.7648048098891653e+00 -1.2380974824409735e+01 -1 0 -1
212 2 2.3707860190086127e+00 -7.3602764294674214e+00 -1.0956596004630736e+01 0 0 0
725 2 1.8731340872251363e+00 -5.9007428649924485e+00 -1.3090558261875035e+01 -1 0 0
425 1 1.8171546798746629e+00 -4.6254225974194476e+00 -1.0858725099787849e+01 0 0 0
165 1 4.4882197321489219e+00 -5.7455393895822233e+00 -1.2079797828349287e+01 0 1 0
264 2 -5.5459752238965523e+00 -4.4943766183350284e+00 -1.1568384244804003e+01 0 0 0
473 2 -5.4019207901703270e+00 -2.0147993422900523e+00 -1.1806836317935430e+01 0 0 0
681 2 -7.5568314808741679e+00 -2.7560841439011576e+00 -1.0676384340829829e+01 0 0 0
176 2 -7.4596087803360200e+00 -3.2419614640982880e-01 -1.2210085298021257e+01 0 0 0
520 2 -3.5626903822333857e+00 -1.6419147885909156e+00 -1.3430637007836118e+01 0 0 1
483 2 -1.8690400705622587e+00 -3.3759752519164423e+00 -1.3447704878827272e+01 0 0 0
436 1 -1.5098013586283773e-01 -2.1645782798916740e+00 -1.1569799483139347e+01 0 0 0
56 1 -8.7434428500602668e-01 -7.3652802658748362e-01 -1.4118660591187078e+01 0 0 0
556 1 -2.4636222535024608e+00 -2.3026384960846491e-01 -1.1459369913891582e+01 1 0 0
735 1 -3.0595845606074206e+00 -3.3980818172908145e+00 -1.0872538866012269e+01 0 0 0
675 2 6.7930830713373025e-01 -3.7131106484434908e+00 -1.3702415398240998e+01 0 0 0
485 2 3.1716524875182941e+00 -3.7415338279657564e+00 -1.3313038152889968e+01 0 0 0
339 2 2.6034580576188953e+00 -2.0773771790679696e+00 -1.1466644933281593e+01 0 0 0
318 1 2.0579957687417876e+00 -1.3253113986323994e+00 -1.4049998789297192e+01 -1 0 0
179 2 4.8272976550087447e+00 -2.7057123333217485e+00 -1.2152824108541552e+01 0 1 0
554 2 4.6861432478126916e+00 -4.8065824237488847e-01 -1.2736989732763330e+01 0 0 1
232 1 6.9160676342256586e+00 -3.9733416278870606e+00 -1.0783364250164523e+01 0 0 0
793 1 -5.2861239923695464e+00 -1.1664803227688108e+01 -5.9167109670584601e+00 0 1 0
175 2 -7.2650376751340620e+00 -1.0399816728130343e+01 -7.2357977169966903e+00 0 -1 0
486 2 -4.8227532049015807e+00 -1.0179875764818064e+01 -8.1874895916379948e+00 0 -1 1
571 2 -6.0814592332476716e+00 -8.8281160830020582e+00 -5.9369227865334615e+00 0 0 0
182 2 -3.0074216318168649e+00 -1.1751136013448356e+01 -7.4254993642397862e+00 0 0 0
529 2 -1.1939386076450984e+00 -1.3140800967316961e+01 -6.2685030516285911e+00 0 -1 0
219 2 -8.3700953359746560e-02 -1.1378791233119319e+01 -7.9358878697596191e+00 0 0 0
261 2 -3.4559356474838232e+00 -9.5680302942226270e+00 -6.1629569413166214e+00 0 0 0
785 1 -2.2270197599175683e+00 -9.5339397743638390e+00 -8.8278037238339078e+00 0 0 0
352 1 -9.8494651101484787e-01 -1.0613867175826385e+01 -5.6769318690410904e+00 0 0 0
487 1 5.2393149805974959e-01 -9.7800037578737005e+00 -1.0437942521732223e+01 0 0 0
614 2 2.3639314533923108e+00 -1.1209897342056410e+01 -9.1752426530190245e+00 1 -1 0
323 2 4.2791948624795095e+00 -1.1872812196055362e+01 -5.9291593504892832e+00 0 0 0
465 2 2.2444184707786783e+00 -1.0348237030542652e+01 -6.8511593392717964e+00 0 0 1
564 2 4.1516690140522305e-01 -9.1715525754871692e+00 -7.7031202694468686e+00 0 -1 0
825 2 -6.3471755634551421e+00 -3.1006711842752854e-01 -1.0195959183095482e+01 0 -1 0
656 1 4.8874603941077490e+00 -1.0542467661889134e+01 -8.2512886471870974e+00 0 -1 0
277 2 5.6552537693484286e+00 -9.7966216137470941e+00 -5.6455440762201006e+00 0 0 0
431 2 7.5329197881475922e+00 -9.5633175087433315e+00 -7.1837433460092903e+00 0 0 0
594 2 7.1037150763693129e+00 -9.2547287940705871e+00 -9.7242677539488014e+00 0 0 0
54 2 -6.7138448863151918e+00 -8.4341222729796570e+00 -8.3228161330194794e+00 0 0 1
811 1 -5.7764395367707158e+00 -6.1375449380624634e+00 -9.5323283946715538e+00 -1 0 0
22 1 -6.7170975066177094e+00 -6.2167782283695594e+00 -6.3525873450626031e+00 0 0 0
589 2 -8.2955038712537270e+00 -6.6067412935679304e+00 -8.7799375592881006e+00 1 0 1
169 2 -4.2178065866259269e+00 -8.2906168080853710e+00 -1.0282079746540253e+01 0 0 0
2 1 -8.8515300439088058e+00 -8.3034373506292347e+00 -6.5919738663376073e+00 0 0 1
670 2 -4.0077370413239235e+00 -5.6389472428128835e+00 -7.1469145821452633e+00 1 0 0
815 2 -4.2767563086322538e+00 -7.8693548039959031e+00 -7.7534269769150921e+00 0 0 0
466 1 -2.8367313049664311e+00 -5.9672978821695821e+00 -9.4553006785484541e+00 0 0 0
844 1 -1.4265519463472693e+00 -7.3827569695454107e+00 -6.6565512347608626e+00 0 1 0
806 1 9.7284007833799112e-03 -6.9482739215627376e+00 -9.5667470529497560e+00 0 0 0
852 1 3.6442478332697235e+00 -6.2407851057701293e+00 -8.9777401054837185e+00 -1 0 0
875 2 1.4675801002960585e+00 -7.1019560209942423e+00 -7.1846562159598468e+00 0 0 0
587 2 2.5480403359712667e+00 -8.9033676454081476e+00 -8.8066607278638838e+00 0 0 0
295 1 3.9783778551669404e+00 -7.9704507603429251e+00 -6.5834684354871813e+00 0 0 0
632 2 2.8671850177906952e+00 -5.3995290554116622e+00 -6.3626334728610132e+00 0 -1 0
84 2 1.1265179309693649e+00 -4.7923608900153436e+00 -7.8562391287637894e+00 0 0 0
345 1 4.5794629710292760e+00 -8.6976215647300990e+00 -1.0740939940222489e+01 0 0 0
418 2 6.5853394873722255e+00 -6.6316993670565711e+00 -1.0427286741919614e+01 0 -1 -1
319 2 5.7482906368230324e+00 -7.8974310143904711e+00 -8.2458741514097156e+00 0 0 0
280 1 8.7853670850438697e+00 -7.2900375402076971e+00 -8.5697115266127071e+00 0 0 1
348 1 6.8101168604066942e+00 -7.2505023253298209e+00 -5.6758298398831712e+00 0 -1 0
561 1 6.4201888863849037e+00 -5.0951826733289236e+00 -8.1881865625196699e+00 0 0 0
246 1 8.8144949856737416e+00 -4.9563502955133076e+00 -6.3329992222578531e+00 0 0 0
752 2 5.0887202814989143e+00 -5.1408939894884789e+00 -5.6871930032514397e+00 0 0 0
98 2 -7.5106236630624670e+00 -4.2874342316877909e+00 -8.5588078416776927e+00 0 1 0
819 1 -7.2994929954022254e+00 -1.7970377029392206e+00 -8.1430525110073244e+00 0 0 -1
62 2 -5.4241647910188160e+00 -3.3257229543210363e+00 -9.4432384545266501e+00 0 0 0
103 2 -5.6360207904448316e+00 -3.7949105630172300e+00 -6.9424920012168636e+00 1 0 0
410 2 8.9840339827635365e+00 -2.2644813236906409e+00 -1.0796203921771864e+01 0 0 0
138 2 8.3173661827775653e+00 -3.0017097466320575e+00 -8.3597345495039157e+00 0 0 0
718 1 -4.3579465694635262e+00 -1.1629125814317025e+00 -6.8099812665997161e+00 0 -1 0
652 2 -1.3409483954489294e+00 -4.6331197059905298e+00 -7.4525057980436769e+00 1 0 0
107 2 -4.2429335740964751e+00 -1.4009176620736810e+00 -9.5239575348152083e+00 0 1 0
495 2 -3.4446804040896160e+00 -3.5408760266555190e+00 -8.0542094271597993e+00 0 0 1
252 2 -1.8276516334174826e+00 -2.5316805919890628e+00 -6.2096206923025976e+00 1 0 0
804 2 -5.2251958338199656e-01 -4.1575671109094827e+00 -9.6823486020816318e+00 0 0 0
710 1 -1.2343123551372219e+00 -1.8555261565883379e+00 -8.6592273178745760e+00 0 0 0
628 1 3.8747845752444929e+00 -3.4430652944631573e-01 -9.8012448439168764e+00 0 0 0
284 2 4.2447544511303947e+00 -3.6366570036294750e+00 -9.9207560728769231e+00 0 0 0
457 2 2.3818109787939998e+00 -9.3261798990613709e-01 -7.6898983412942696e+00 1 0 0
797 2 1.4659874922869316e+00 -2.6136732824972198e+00 -9.0781033522804329e+00 0 0 1
839 1 9.4561353895578015e-01 -2.6352780055496381e+00 -5.9974170785920329e+00 0 0 0
772 1 3.6882464571920592e+00 -3.2280522469270010e+00 -7.3654260338758428e+00 0 0 0
253 2 1.0885598028429493e+00 -4.6712867535507197e-01 -9.9158162942955581e+00 0 0 0
540 1 6.7012649040905323e+00 -8.6460965563971059e-01 -1.0876528297043134e+01 0 0 0
278 2 6.0120402181249313e+00 -2.2756775373319078e+00 -8.7482476308724664e+00 0 0 0
136 2 6.6341961696233458e+00 -3.0837511293969344e+00 -6.4358262847137180e+00 1 1 0
137 1 5.3286683205241836e+00 -6.4866992357946263e-01 -6.6783209973572690e+00 -1 -1 0
185 1 8.0598652474580632e+00 -3.1454696432144891e-01 -8.1661432605604301e+00 -1 0 0
449 2 -7.2172386776233264e+00 -1.0303308910878723e+01 -1.6658623712747944e+00 0 1 1
77 2 -8.3387958402482081e+00 -1.2489746517540194e+01 -2.1470809075594728e+00 0 0 1
203 2 -5.9141688854689320e+00 -1.1926716302326279e+01 -3.1194821771622165e+00 0 1 0
471 1 -7.9660641930720821e+00 -1.0444309673355280e+01 -4.3037641381195675e+00 0 0 0
603 1 -4.5687627779389981e+00 -9.6010650395628190e+00 -3.5936734949698836e+00 0 0 0
158 2 -4.6488193236071735e+00 -1.0455171207386448e+01 -1.0103737695575552e+00 0 0 0
400 1 -6.3322249557392079e+00 -1.2432938605862303e+01 -1.4121469533014410e-02 0 0 0
374 1 -3.4806903600538748e+00 -1.2856966123107894e+01 -2.0538475631699731e+00 0 0 0
230 2 -2.2462353477201225e+00 -1.0991371728919216e+01 -5.0399549379766329e-01 0 1 0
320 2 -1.8021316146809678e+00 -1.0614467089558952e+01 -2.8798491036301184e+00 0 0 0
331 2 -8.8566898030883823e-01 -1.2748525198273473e+01 -3.6780120588764307e+00 0 0 0
842 2 -3.0772391448510943e+00 -1.1947378661989726e+01 -4.5960425759797623e+00 -1 0 0
9 2 -6.1992918147587306e-01 -1.2498702312854096e+01 -1.2472520552325059e+00 0 0 0
41 2 4.0739282357062151e-01 -1.0451059060455751e+01 -6.5273974944663993e-01 1 0 0
691 2 2.8929342689812105e+00 -1.0897646340838348e+01 -3.9421845184450943e-01 0 0 -1
308 2 6.4017079538596788e-01 -1.0802835198102155e+01 -3.0257240457450267e+00 0 0 0
83 2 1.9246343636269323e+00 -1.2450810646810348e+01 -2.0692678672062650e+00 0 0 0
631 1 3.2736593203410060e+00 -1.0335169767546185e+01 -3.8812493686589162e+00 0 0 0
642 2 3.5896780467311626e+00 -1.3116620710834470e+01 -3.7727770811148780e+00 0 0 0
275 2 4.6846581086585708e+00 -1.1610083076087934e+01 -1.8358448576400470e+00 0 0 0
437 1 7.5448637680012007e+00 -1.0900360705943200e+01 -2.1751008417971081e+00 0 0 0
683 1 5.1078802069405178e+00 -9.4071090517043494e+00 6.9948905368275791e-02 0 -1 0
560 2 5.6483712753762667e+00 -1.1615614705413549e+01 -3.9091583569356554e+00 1 0 0
149 2 7.8647438837060992e+00 -1.0497327750748306e+01 -4.9375657406391236e+00 0 0 0
484 1 -6.5276100399998107e+00 -5.3988356421462642e+00 -1.5071574950118807e+00 0 0 0
771 2 -5.8446500473385701e+00 -8.3830309221119155e+00 -1.1574915960339831e+00 0 -1 0
125 1 -7.1339099934734032e+00 -7.5844010345434967e+00 -3.5430780857150821e+00 0 0 1
210 2 -8.3435213005417701e+00 -8.0113815347327932e+00 -1.0147152169755096e+00 0 1 0
787 2 -5.5279516986912300e+00 -4.7257999228039633e+00 -3.9775782409139127e+00 0 -1 0
821 2 -7.9375559073548816e+00 -4.7915825974066681e+00 -3.9253192122454990e+00 0 1 0
769 2 -4.4931957633765025e+00 -6.8245791472977055e+00 -2.3765590894541182e+00 0 0 -1
151 1 -4.1098278739447620e+00 -7.0699560141365136e+00 -4.9519037575497551e+00 0 0 0
723 2 -1.9439586043236152e+00 -8.6412509696448243e+00 -4.2704559223224043e+00 0 0 0
707 2 -2.5768835000092188e-01 -8.6803663963603501e+00 -2.4172874952209411e+00 0 0 0
546 1 -2.6981808753334189e+00 -8.5925295331470934e+00 -1.2775913272563233e+00 0 0 0
624 2 -2.9021544027579980e+00 -5.6906474221649610e+00 -5.2733057105122783e-01 0 0 0
498 1 -1.7041139013009954e+00 -6.3727297582734463e+00 -2.9647803254361058e+00 0 0 0
356 2 -7.9766579515362157e-01 -4.5697510633361169e+00 -1.1311318724401263e+00 1 1 0
302 1 -1.8217114437187062e-01 -7.0412811451242119e+00 -2.4977951912100338e-01 0 0 0
341 2 -3.6130079912483990e+00 -4.3768295406900473e+00 -2.6704079744817300e+00 0 0 1
693 2 8.6811461796820453e+00 -3.1217252686586230e+00 -3.9991288553464841e+00 0 0 0
430 2 9.0998616459741399e-01 -6.3823331048842116e+00 -2.7042480665299631e+00 0 0 0
18 1 2.4221550444182265e+00 -8.3892029591701665e+00 -1.4923999058663584e+00 0 0 0
306 2 2.6384316433849153e+00 -5.7121255837923828e+00 -1.1775121726695361e+00 0 0 0
87 1 3.4903339833557645e+00 -6.5483259316347091e+00 -3.9426508776009181e+00 1 0 0
243 1 1.0541897962228832e+00 -8.5275126220224511e+00 -4.8163158325733573e+00 0 0 0
864 1 3.9545691639031039e-01 -5.5612462959117499e+00 -5.1739543827265786e+00 0 0 0
225 2 4.7810200814291219e+00 -7.0649926847139941e+00 -1.2820081468279929e+00 0 0 0
95 1 7.5067199282865920e+00 -7.7864736818497970e+00 -9.2598630849298658e-01 0 0 1
634 2 6.3045731367877149e+00 -6.3322782698463662e+00 -2.8973089748538241e+00 0 0 0
88 1 5.6390763291409796e+00 -8.9739527701576201e+00 -3.1229477897843525e+00 0 0 0
544 2 8.2693615198001336e+00 -8.3838746979114394e+00 -3.4360825585133377e+00 0 0 -1
666 1 7.9561303048115803e+00 -4.6218680745566783e+00 -1.5323791175801285e+00 0 0 0
668 2 8.6837062268513758e+00 -5.9910509229986975e+00 -3.7980084980826390e+00 0 -1 0
584 1 -6.6771511437200406e+00 -2.3415007348044869e+00 -4.9650791527816409e+00 0 0 0
90 2 -4.8404783126905500e+00 -2.4409827328915097e+00 -3.0354756113291343e+00 0 0 0
823 1 -7.3183038701396841e+00 -1.5531036801961999e+00 -1.8810636396432920e+00 0 0 0
33 2 -4.9410387050581175e+00 -3.1895429393290291e+00 -8.3251683163947254e-01 0 0 0
128 2 8.2392157617982029e+00 -4.3506531295228248e+00 3.8775442946470928e+00 0 0 0
5 1 -4.0916339653974516e+00 -6.5812561259231828e-01 -1.2175084804259697e+00 0 0 1
240 2 -3.2025841597998053e+00 -1.0509075512665740e+00 -4.1502651269636637e+00 0 0 0
228 1 -1.2866050918209395e+00 -3.1026972526037793e+00 -3.5916171243463770e+00 1 0 0
19 2 -1.3352776012081533e+00 -7.7262434541193392e-01 -2.2105336135229603e+00 0 0 0
152 2 -2.5017303544362561e+00 -2.9718792213647678e+00 -8.3212637485251983e-01 0 0 0
392 1 -7.0797560104053325e-01 -1.7477661521850979e-01 -4.7966493982166396e+00 0 0 0
794 2 -1.7777599392431190e-01 -2.2750782493135220e+00 -7.4468094068242530e-01 0 0 0
768 2 -3.9290480297148744e+00 -3.1992226371912111e+00 -5.1004495526850091e+00 0 0 0
226 2 3.1206740356655343e+00 -3.8041708133613494e+00 -4.6173466949324586e+00 0 0 -1
805 2 9.5034181847595811e-01 -1.1416543756070294e+00 -2.8319186002559449e+00 0 0 0
470 1 1.5151015621236947e+00 -3.7746223334305906e+00 -2.6090211360625353e+00 0 0 0
160 2 3.6468408259516005e+00 -1.7772247248809743e+00 -2.7917858740992423e+00 0 0 0
145 1 2.5693674100389168e+00 -1.1193738140814635e-01 -5.0140694036731048e+00 0 1 0
173 1 2.8856593083495481e+00 -2.0802209564691916e+00 -1.9562352500983610e-01 0 0 0
427 2 6.2021597880382495e-01 -7.9616784189030773e-02 -5.9697646806457705e-01 -1 -1 0
131 1 8.0324154618572816e+00 -1.6772286146056608e+00 5.2195671445758984e+00 0 0 1
316 2 7.2468104539150566e+00 -6.9067119608377536e-01 9.2007777143943037e-01 0 0 0
757 1 4.8597125987197982e+00 -3.9528311690325242e+00 -2.1045612773794802e+00 0 0 0
519 2 5.3402414039201593e+00 -2.4036497891750659e+00 -4.4643046716002885e+00 0 0 1
763 2 4.8298995432056113e+00 -4.4382323490017989e-01 -9.0828716086328387e-01 1 0 0
39 1 6.9905578622187168e+00 -1.6706875621572841e+00 -2.2352279931918959e+00 0 0 0
207 2 6.7658519228765055e+00 -4.3783971562704362e+00 -4.3042969741916393e+00 0 0 0
475 2 7.6653300975090666e+00 -1.0622987649918545e+00 -4.9607894214516897e+00 0 0 0
708 2 8.6790541289494723e+00 -2.4608528046808447e+00 -9.1405589099185017e-02 0 0 0
547 1 -8.8434206525534158e+00 -1.1132295006414269e+01 3.3528930945304025e+00 0 0 0
20 1 -6.9661190354245397e+00 -9.5375703621115022e+00 1.1379053072913097e+00 0 0 0
444 2 -6.7865621275447650e+00 -9.5144464317302262e+00 3.8033094308745659e+00 0 -1 1
208 1 -5.6902490385145317e+00 -1.1969929497825024e+01 3.0255498663880571e+00 0 0 0
575 2 -8.7732287419752879e+00 -1.1522641829959611e+01 3.0388129307844824e-01 0 0 0
869 2 -1.4195504505836056e+00 -1.2444368688037313e+01 1.1222148256845912e+00 0 0 0
731 2 -3.9205742906050647e+00 -1.2468325661174543e+01 9.3903628275269058e-01 0 0 0
645 1 -9.6003847678572574e-01 -9.4927371033605770e+00 1.4793980654388261e+00 0 -1 0
835 1 -3.8748683615378043e+00 -9.5891507948386643e+00 1.5915021835170435e+00 0 0 0
123 2 -4.4861035473548005e+00 -9.8257096237493720e+00 4.2963216448908543e+00 1 -1 0
334 1 -2.4963723162441100e+00 -1.1463972421130249e+01 3.4104638755596897e+00 0 0 0
833 2 -2.0788677446622669e-01 -9.4110712778474230e+00 4.1059940036263649e+00 0 0 0
155 2 -3.8880170406901859e-01 -1.1750500298977681e+01 4.9679258014618295e+00 0 0 0
72 1 4.6412602451850082e+00 -1.8574831587469814e-01 1.8820986884485211e+00 0 0 0
611 2 1.2459442819496533e+00 -1.2586133915751471e+01 4.1679156320060035e-01 0 0 0
566 1 3.7251919247399266e+00 -1.1648670152749245e+01 1.9459704133521123e+00 0 0 0
469 1 2.0697801020879694e+00 -9.1136958247949078e+00 1.6319735877227768e+00 0 0 -1
784 2 4.2403380442666677e-01 -1.1491909902586647e+01 2.5745397988588308e+00 1 0 0
204 1 2.1076783014150000e+00 -1.0914724189417024e+01 4.4880148172843128e+00 0 0 1
776 2 7.0406289581316015e+00 -2.4901778534985270e+00 2.7907078591604066e+00 0 0 -1
338 2 7.7086503064196279e+00 -9.9492735306768108e+00 4.2180544341427001e-01 0 0 0
451 2 6.4766963275869616e+00 -1.0661987426488503e+01 2.5761907789015965e+00 0 1 0
513 2 4.8009683169239112e+00 -1.1225139061663951e+01 4.5258165767893139e+00 0 -1 0
464 1 -8.4845019498856917e+00 -7.4972108845765506e+00 3.1186587709286981e+00 0 0 0
441 2 -6.6649794536381046e+00 -6.7091766750613413e+00 9.4434612969082599e-01 0 0 0
116 2 -7.1654334824335351e+00 -5.0444226620897954e+00 2.8811349971656188e+00 -1 0 0
664 2 -6.7601549662251426e+00 -6.3390203356714911e+00 5.2120374655205497e+00 0 0 0
156 2 -5.2591574942927739e+00 -4.7147282657540144e+00 4.3114064058680386e+00 0 -1 0
101 1 -5.1795702883729371e+00 -7.3103859930314625e+00 3.3447335253557267e+00 0 0 0
272 2 -4.4514556132905909e+00 -7.3551058709753452e+00 3.3303797086687320e-01 0 0 -1
140 1 -4.6045215351001092e+00 -4.9470411014457323e+00 1.5148355806189124e+00 0 0 0
453 2 -2.5239825946781553e+00 -8.2163074103608817e+00 3.6375504122604361e+00 0 0 0
382 2 -2.3335605595751461e+00 -6.9877365142929637e+00 1.5111273646954435e+00 0 0 0
301 2 -2.6228923241585083e+00 -5.7748363565651459e+00 3.7039081676670009e+00 1 0 0
429 1 -8.6695510300448253e-02 -6.8129118955237589e+00 2.8666559454430769e+00 0 0 0
30 1 4.4399585104630352e+00 -8.8150298339500086e+00 3.4274163367982768e+00 0 1 0
773 2 2.0146457035023388e+00 -6.4831784621134974e+00 1.0779076885059706e+00 1 0 0
24 2 1.8737063176864999e+00 -8.1510043174955609e+00 4.7895472467439006e+00 0 1 0
876 2 2.8803781605207264e+00 -6.3937750248743113e+00 3.1631712562576308e+00 0 0 0
712 2 1.5701681427210219e+00 -5.7227763645496070e+00 5.1728998716957673e+00 0 0 0
518 2 4.3277095081711732e+00 -6.8536199574803049e+00 1.1882154208016771e+00 0 0 0
593 2 3.6727016498654379e+00 -4.5173384153735991e+00 6.9819738655844310e-01 0 0 0
360 2 1.1009979380947450e+00 -4.3731675210762875e+00 2.5097080875216965e-01 0 1 0
601 1 6.9649404150861054e+00 -9.2079638069845462e+00 4.8790860605106863e+00 0 0 0
702 2 6.0801154335524057e+00 -5.5695661208858542e+00 5.9831157382077206e-02 -1 0 -1
310 1 6.8664698127202959e+00 -7.7955210553361809e+00 2.1214435795475590e+00 0 0 0
337 1 5.6230754702147534e+00 -5.0865018361724710e+00 2.9135112375731054e+00 0 0 0
506 1 8.2997037337403814e+00 -5.1592056152065062e+00 1.4362459886723749e+00 0 0 0
716 1 -7.7083407346161250e+00 -3.6670532886514442e+00 5.1059771670136564e+00 0 0 0
814 2 -7.1014908367679563e+00 -3.7464649053264147e+00 4.3510492289705249e-01 0 0 0
227 2 -8.2272584059928171e+00 -2.9073662003013276e+00 2.5455783427707144e+00 0 0 0
609 1 -6.5621813363646044e+00 -1.1143122421205203e+00 1.0031881447177926e+00 0 0 0
828 2 -5.7489212939349130e+00 -2.7859545527189407e+00 2.9585767536140213e+00 0 0 0
25 1 -7.2712721413248405e+00 -6.6678293012004275e-01 4.0113438585237002e+00 0 0 0
651 1 -1.6348536246761149e+00 -4.0354179911963390e+00 1.6685597107821384e+00 0 0 0
46 2 -3.2375019780198562e+00 -3.2517481399627104e+00 3.6992484543884978e+00 0 0 0
12 1 -1.7817450716179515e+00 -8.8695932964760515e-01 9.8306308329986358e-01 0 0 0
201 2 -4.0421694658728464e+00 -2.3502857661204084e+00 1.1371765681488668e+00 0 1 0
808 1 -3.9164923637257667e+00 -4.1263904017964853e-01 3.1558113826210525e+00 0 0 0
144 2 -6.4412199141500226e-01 -1.9447764288824090e+00 3.1937176240763399e+00 0 1 1
93 1 -7.3234651469906753e-01 -4.1916801697374337e+00 5.0775295898195587e+00 0 0 0
290 2 5.3199099606959228e+00 -1.8205329619650623e+00 4.0969490586792121e+00 0 1 0
330 1 1.3506486016039612e+00 -4.2071223001515836e+00 2.9586931404579127e+00 0 0 0
395 2 3.8037919787130479e+00 -2.8331245062327386e+00 2.3850909350437153e+00 0 0 -1
523 2 9.7819346333168378e-01 -1.9957071549063203e+00 1.4592866909106796e+00 0 -1 0
150 1 2.1453538331197888e+00 -1.3224873174691636e+00 3.9010057921320671e+00 0 0 0
597 1 3.5388246079379178e+00 -3.5637362687455791e+00 5.2757812539810374e+00 1 0 0
783 2 6.3829448297530051e+00 -3.8637923045723586e+00 5.2739889199294554e+00 0 0 0
343 1 5.8689195939800012e+00 -3.0181472257594875e+00 4.7334835410155529e-01 0 0 0
635 2 -8.9131098336540209e+00 -3.6824327591189281e+00 -1.7861360302518736e+00 0 -1 0
53 2 -2.4057560727278728e+00 -1.6195064823725316e+00 5.2244216679711624e+00 0 0 0