LAMMPS data file via write_data, version 5 Jun 2019, timestep = 2000000

808 atoms
2 atom types

-2.2172519699999999e+01 2.2172519699999999e+01 xlo xhi
-2.2172519699999999e+01 2.2172519699999999e+01 ylo yhi
-2.2172519699999999e+01 2.2172519699999999e+01 zlo zhi

Masses

1 63.546
2 91.224

Atoms # atomic

479 1 -1.2289433300517747e+01 -1.9419128834581056e+00 -1.1301269105491921e+01 0 0 0
483 2 -1.1413634139812782e+01 -5.3560543698335508e+00 -8.1227461587554366e+00 0 0 0
446 2 -1.4164219546830472e+01 -1.1064162316404087e+00 -9.3545676625654224e+00 0 0 0
445 2 -1.3707260236741062e+01 -3.4247440460955452e+00 -7.4648415204601006e+00 0 0 0
407 1 -1.5049584226997988e+01 -1.6026731504085239e+00 -6.3707734211814167e+00 0 0 0
460 1 -1.2650744803447097e+01 -8.7066586486113862e-01 -7.1835658680647390e+00 0 0 0
478 1 -1.2671811070129861e+01 -3.7735877584209643e+00 -9.8094824792776496e+00 0 0 0
425 1 -1.2919751495740863e+01 -5.0596678050930111e+00 -5.7784373611919086e+00 0 0 0
427 1 -1.1332337733889322e+01 -5.8212111381982830e+00 -6.3740997233750418e-01 0 0 0
130 1 -1.3817949933431610e+01 -2.5951647884830362e+00 -2.3528683998325555e+00 0 0 0
457 2 -1.1469524382150407e+01 -1.1777868486568210e+00 -2.4690309543654623e+00 0 0 0
430 1 -1.2573138717168613e+01 -3.7716602818161200e+00 -7.4317007125741708e-01 0 0 0
444 2 -1.4032294223683349e+01 -4.4407352324665883e-01 -4.1750692850161961e+00 0 0 0
429 2 -1.1829244430276479e+01 -4.6623570976941888e+00 -3.3114493841534318e+00 0 0 0
461 2 -1.1932758911245424e+01 -2.5226280262733147e+00 -5.3187416676228745e+00 0 0 0
409 1 -1.4403308895053362e+01 -3.3203964308922327e+00 -4.5645965787208302e+00 0 0 0
134 1 -1.4765033661812746e+01 -3.8231630051319193e-01 -1.5412895935564555e+00 0 0 0
149 2 -1.2906908419611153e+01 -1.3823115172468361e+00 2.2444197491417672e-01 0 0 0
471 1 -1.3274915886315840e+01 3.1218935533458242e-01 -1.1543910527209169e+01 0 0 0
473 1 -1.2048025237119409e+01 2.7337310000418680e+00 -1.1725500898048120e+01 0 0 0
78 1 -1.1971409724816459e+01 7.1595010059004025e+00 -1.1790046729127461e+01 0 0 0
408 2 -1.4405091226568986e+01 1.0992786381209627e+00 -6.8815740120521793e+00 0 0 0
459 1 -1.2915074940836041e+01 3.5934775292678149e+00 -7.1694322753392035e+00 0 0 0
406 1 -1.5415378101262874e+01 3.6596063214915624e+00 -8.1313105348086854e+00 0 0 0
464 2 -1.3753714191896618e+01 2.3395883978407204e+00 -9.3682999186448583e+00 0 0 0
480 2 -1.1516904902341530e+01 4.8061511886530323e-01 -9.7918612558677864e+00 0 0 0
418 2 -1.3202788044083178e+01 5.2068175504612482e+00 -1.0169929632640057e+01 0 0 0
82 2 -1.1201318700264748e+01 1.0388256373670597e+01 -9.1147341116510887e+00 0 0 0
81 2 -1.2260550117934709e+01 7.7687114486605111e+00 -9.3531231427049502e+00 0 0 0
416 2 -1.4554284338443383e+01 6.0489381267180518e+00 -7.5827146287849088e+00 0 0 0
411 1 -1.5545042533412287e+01 8.3992306743887308e+00 -6.8690789378183297e+00 0 0 0
415 2 -1.2651436056951084e+01 8.2368877470822763e+00 -6.3043007465487104e+00 0 0 0
13 1 -1.1500844156137800e+01 1.0523345815527581e+01 -6.6005840877808906e+00 0 0 0
80 1 -1.4963457830334429e+01 8.0596799719999712e+00 -9.1926666663597558e+00 0 0 0
417 1 -1.1656539961899885e+01 5.8041805536477833e+00 -7.6764673515792756e+00 0 0 0
17 2 -1.4022189897702457e+01 1.0386414927499562e+01 -7.9678081173982447e+00 0 0 0
79 1 -1.3054645522254495e+01 9.4763324375496261e+00 -1.0919389942919912e+01 0 0 0
458 2 -1.1194747724063149e+01 1.6140417274685843e+00 -6.8687270439266621e+00 0 0 0
456 1 -1.2746464830992617e+01 5.5149839241171454e+00 -5.5725547173205410e+00 0 0 0
195 2 -1.4663756587613126e+01 3.9837082937914512e+00 -6.0112837623727489e-01 0 0 0
202 2 -1.2943747149415499e+01 4.2068023920035857e+00 -3.1918908174472880e+00 0 0 0
200 2 -1.2876667660745852e+01 1.4074393571325010e+00 -1.5418919053772018e+00 0 0 0
176 1 -1.5696006489377355e+01 4.6328557625651303e+00 -2.9875763141239662e+00 0 0 0
131 1 -1.5013796601335757e+01 2.1493477320464094e+00 -3.1296667600892265e+00 0 0 0
463 1 -1.2885933589899023e+01 2.1556862454985257e+00 -4.8186182486741496e+00 0 0 0
133 2 -1.4873993186611278e+01 6.9814567836979959e+00 -1.7786329879546179e+00 0 0 0
201 1 -1.2463804410153122e+01 5.7452781762353373e+00 -9.5745889529605410e-01 0 0 0
462 1 -1.1328553905555568e+01 4.4315258023662346e-02 -4.9229173171542406e+00 0 0 0
141 2 -1.4766926974649737e+01 9.2669998886368692e+00 -4.4401675127893485e+00 0 0 0
155 1 -1.2289290373703908e+01 1.0079069743629624e+01 -4.2609833999061832e+00 0 0 0
156 2 -1.2435924255452393e+01 7.4081689266613573e+00 -3.3675788817737677e+00 0 0 0
140 2 -1.3245089463227238e+01 9.8715208142017019e+00 -1.7677042390441484e+00 0 0 0
153 1 -1.4960400878533690e+01 6.4608679918217069e+00 -4.5194088453661916e+00 0 0 0
443 2 -1.5060865709323375e+01 3.7537810976015962e+00 -5.4514754421653988e+00 0 0 0
196 1 -1.1192089902694818e+01 3.5273766939355813e+00 -1.4372976931304353e+00 0 0 0
205 2 -1.2653945880641844e+01 3.2813586886769834e+00 4.2517746474124971e+00 0 0 0
132 1 -1.3255278062107793e+01 5.3266345735474410e+00 1.5193790983443116e+00 0 0 0
177 1 -1.4400168261255157e+01 3.2434811764010583e+00 2.1248266721774502e+00 0 0 0
203 2 -1.3170394878416314e+01 7.4709932069685814e-01 2.6177811086465210e+00 0 0 0
199 2 -1.1956198857125635e+01 2.9952161566508382e+00 8.9805098259254090e-01 0 0 0
209 1 -1.1619249441007016e+01 1.0014124824534949e+00 5.1621538838518735e+00 0 0 0
690 1 -1.4516254912525088e+01 1.2399511064506905e+00 5.1319847560809728e-01 0 0 0
152 2 -1.1212156086600496e+01 1.0115097553320210e+01 1.1599404085932239e+00 0 0 0
142 2 -1.2826936376198717e+01 7.8133709185383973e+00 6.5740932051482237e-01 0 0 0
208 1 -1.1703518720637883e+01 9.4752289888932122e+00 3.6444376657212456e+00 0 0 0
210 2 -1.2224343845663308e+01 6.5766635239869462e+00 3.5799943907183902e+00 0 0 0
214 1 -1.1122447292293622e+01 5.3447076514146055e+00 5.4581076867317924e+00 0 0 0
14 2 -1.1147105119547188e+01 1.3176520034394644e+01 -7.5767763018474890e+00 0 0 0
16 1 -1.2367499359176158e+01 1.2072837569335174e+01 -2.7918681312818978e+00 0 0 0
151 1 -1.2119996393706501e+01 1.1837842353038178e+01 -2.9745955394625001e-01 0 0 0
11 2 -1.3553531936095826e+01 1.2000221808447769e+01 -5.3431367598032011e+00 0 0 0
410 1 -5.5327246251194735e+00 -7.2173102153699604e+00 -1.2138619062009719e+01 0 0 0
440 1 -7.8232448138642177e+00 -5.8641084344638452e+00 -1.1385666050659527e+01 0 0 0
536 1 -2.9576604588511395e+00 -7.8459889904556173e+00 -1.2272948717850579e+01 0 0 0
538 1 -3.9465646712039950e+00 -5.6437096616953060e+00 -1.2935283977332208e+01 0 0 0
451 2 -7.7481153059547587e+00 -3.1322095909158731e+00 -1.1560024359207176e+01 0 0 0
487 1 -8.8963633632115666e+00 -4.6975333229787237e+00 -1.3360852605619231e+01 0 0 0
475 1 -1.0249709009475460e+01 -2.5357440188429723e+00 -1.2911527560735850e+01 0 0 0
490 2 -8.2667408618234539e+00 -2.2649366489657035e+00 -1.4517883405940347e+01 0 0 0
447 2 -6.1966469156533019e+00 -4.5577887973425737e+00 -1.3459743293095654e+01 0 0 0
450 1 -5.8520681841044553e+00 -1.8036717063984964e+00 -1.2991067181113547e+01 0 0 0
539 1 -5.5940433955486588e+00 -2.5311595274022722e+00 -1.5266179148700484e+01 0 0 0
584 2 -3.3641136977495201e+00 -3.8054789237611835e+00 -1.5162472639550819e+01 0 0 0
580 1 -1.8022260649914925e+00 -5.5556522705766866e+00 -1.3622873337381240e+01 0 0 0
514 2 -5.3891772082950679e-02 -7.8394595716725366e+00 -1.2361051419254981e+01 0 0 0
570 2 -2.8054067180565212e-01 -9.8283596133699996e-02 -1.2933497329377175e+01 0 0 0
586 1 -4.0074349414040661e-01 -4.1743134651514788e+00 -1.5262806423745655e+01 0 0 0
576 1 -1.4171869762623110e+00 -2.6975126310982991e+00 -1.3433288384759551e+01 0 0 0
535 2 -3.5285622073152405e+00 -5.7384113188505226e-01 -1.3834935340674843e+01 0 0 0
533 2 -3.5830939213106099e+00 -2.9365554775041209e+00 -1.2096730805317105e+01 0 0 0
582 2 -1.2719316683263688e+00 -1.3368025153971814e+00 -1.5835474213622462e+01 0 0 0
542 1 -3.7979508224686915e+00 -1.6467371272271818e+00 -1.6459502278023489e+01 0 0 0
481 2 -1.0747423077511380e+01 -2.1895924925359397e-02 -1.2864835953427409e+01 0 0 0
567 1 -5.0280142797299057e+00 -2.4543728986621285e-02 -1.1324090783382546e+01 0 0 0
477 2 -1.0468786525069424e+01 -4.3723548162640293e+00 -1.1088501132543763e+01 0 0 0
420 2 -8.4083600215828138e+00 -8.5392755937428078e+00 -7.5086081665210829e+00 0 0 0
746 1 -7.1205805944554550e+00 -7.1791684383704926e+00 -9.4204104102838908e+00 0 0 0
431 1 -9.4723408715913173e+00 -6.6349115800889171e+00 -9.4275759645069837e+00 0 0 0
413 2 -5.8071111780970295e+00 -5.9316963568592644e+00 -7.3801495144718956e+00 0 0 0
424 1 -8.6743500202451020e+00 -5.9858323599939709e+00 -6.8600336831441675e+00 0 0 0
515 1 -1.2767967365892358e-01 -4.1375221424631698e+00 -9.6341448949287383e+00 0 0 0
744 2 -5.3881862074304641e+00 -9.1052866689344238e+00 -7.1636864773006028e+00 0 0 0
769 2 -7.5183154335466351e-01 -9.1011114451739807e+00 -6.1152347003976608e+00 0 0 0
745 1 -3.2729872058653964e+00 -9.6612820515193238e+00 -5.9508720301067610e+00 0 0 0
768 2 -3.3189912742441572e+00 -6.9635322924658052e+00 -6.0116540836923820e+00 0 0 0
767 1 -2.4384322275460946e+00 -8.5557352793634642e+00 -7.9234410344510504e+00 0 0 0
788 2 -5.7879064490504673e-01 -6.5970952595590582e+00 -8.0961335962081584e+00 0 0 0
792 1 -1.3833561496410949e+00 -7.8763277087012149e+00 -1.0165004624705938e+01 0 0 0
537 2 -4.2592363921784093e+00 -7.9497474167236764e+00 -9.8507940298669823e+00 0 0 0
516 2 -2.1845270530892020e+00 -5.5389734432949043e+00 -1.0942116351274596e+01 0 0 0
766 1 -3.2322012133041622e+00 -5.8905489533030027e+00 -8.3785991928514783e+00 0 0 0
453 2 -7.4775615430412223e+00 -1.3583605057758108e+00 -8.7893692561190573e+00 0 0 0
454 2 -7.4576190690295370e+00 -3.2265722210582202e+00 -6.0991358211568727e+00 0 0 0
489 1 -1.0092753566959153e+01 -3.9581124194480446e+00 -6.4243436666208069e+00 0 0 0
476 2 -1.0810815937427680e+01 -2.1005535120935321e+00 -8.5658373223757298e+00 0 0 0
466 2 -9.2441636494219352e+00 -9.0896196474702340e-01 -6.2236552691623030e+00 0 0 0
482 2 -8.4174195045624831e+00 -4.4232313493700461e+00 -8.8604943528825011e+00 0 0 0
448 1 -5.9114394336958842e+00 -3.4842780946401453e+00 -8.3871317935508802e+00 0 0 0
474 1 -9.4771030512369272e+00 -1.3520628737706946e+00 -1.0791669747353170e+01 0 0 0
412 2 -5.4361041864883770e+00 -5.1739294828364484e+00 -1.0486831178565982e+01 0 0 0
560 2 -2.2816307684030752e+00 -1.7839558743885917e+00 -6.4153366905522695e+00 0 0 0
545 1 -4.0644551863601084e+00 -4.1533285246462173e+00 -6.5888401454193746e+00 0 0 0
534 2 -3.0696980320948475e+00 -3.1835271176081030e+00 -9.0569852604570702e+00 0 0 0
529 2 -4.5280361146195434e+00 -4.5279237802081812e-01 -8.3236523490471672e+00 0 0 0
531 1 -5.3181391817570232e+00 -2.1793183405482708e+00 -1.0406902922117101e+01 0 0 0
526 1 -5.0734577136790620e+00 -1.9627800166974747e+00 -6.2525106239895356e+00 0 0 0
569 2 -2.4247380179009177e+00 -1.9074252946877773e-01 -1.0613954948567775e+01 0 0 0
540 1 -1.3653704787097047e+00 -4.3995478438291578e+00 -7.1149596250586935e+00 0 0 0
568 2 -1.7939740698341439e-01 -1.6067249052228831e+00 -8.7709861905851074e+00 0 0 0
573 1 -1.0456051381610603e+00 -2.4592289855863876e+00 -1.1077374713654216e+01 0 0 0
423 2 -1.0789544515574097e+01 -6.9840619725153577e+00 -5.6185472924972819e+00 0 0 0
757 2 -8.3959697566687570e+00 -8.4772414299650354e+00 -8.4760590131333180e-01 0 0 0
754 1 -7.3881592960031064e+00 -7.2125435345807087e+00 -2.8827831784818199e+00 0 0 0
748 1 -6.8134762199409735e+00 -9.8836516880152558e+00 -2.3519895657566079e+00 0 0 0
759 1 -1.0180482102712647e+01 -7.4629946168683343e+00 -2.8995804738097624e+00 0 0 0
755 2 -8.5657702788555632e+00 -8.9510835619071543e+00 -4.3129747090076318e+00 0 0 0
525 1 -1.6302972108732974e+00 -3.1575265765681499e+00 -2.3805702809435951e+00 0 0 0
747 2 -5.1863528684603297e+00 -8.7038370676552006e+00 -4.1536661967442541e+00 0 0 0
752 2 -5.2686347134522276e+00 -7.6533277197745626e+00 -1.0894865670235070e+00 0 0 0
760 1 -3.5898585608824827e+00 -6.8143682127281711e+00 -3.1806648467585332e+00 0 0 0
778 2 -1.0216472507511145e+00 -6.1147627828881248e+00 -1.1033304916039177e+00 0 0 0
762 1 -2.5309411609437045e+00 -8.3407184510096108e+00 -1.5360044566661568e+00 0 0 0
552 1 -1.6746598445021823e+00 -1.1993735100721241e+00 -3.8315352410620154e+00 0 0 0
750 1 -4.2391495700028203e+00 -1.0240552288176692e+01 -1.8079804189159825e+00 0 0 0
786 2 -2.3297581778133889e+00 -9.7062741068281149e+00 -3.6529732999196898e+00 0 0 0
785 1 -1.4598826941221885e+00 -6.9537691157915003e+00 -3.7542334290644481e+00 0 0 0
771 1 -1.4721056293869432e+00 -1.0809316394671827e+01 -1.6158834501667418e+00 0 0 0
223 1 -6.2445787655175744e-01 -8.1208004418556523e-01 -1.5109376103211445e+00 0 0 0
758 2 -8.9613070559673531e+00 -5.4777519291940546e+00 -1.3012210079669015e+00 0 0 0
467 1 -9.5975292224945399e+00 -2.8534485149621531e+00 -4.0726061727106897e+00 0 0 0
414 2 -7.4254392334217867e+00 -2.8189655378004472e+00 -2.7309763267331681e+00 0 0 0
162 1 -6.2314495095394831e+00 -5.7987665173605762e-01 -1.9046845259344032e+00 0 0 0
158 2 -9.1877653917111033e+00 -1.2974553540126799e+00 -2.8342973092176549e-01 0 0 0
751 1 -6.3309209570898393e+00 -5.2251956183647215e+00 -1.7042665231236453e+00 0 0 0
426 1 -1.0284197813731556e+01 -3.3225552421447326e+00 -1.6752110358353245e+00 0 0 0
488 1 -6.6898064585983157e+00 -9.7872992405008907e-01 -4.6390086242143216e+00 0 0 0
428 2 -8.6283180665908379e+00 -5.4102689236582178e+00 -4.3181804922102121e+00 0 0 0
523 1 -1.8399569738997523e-01 -2.9987259404612385e+00 -5.2187445961940648e+00 0 0 0
225 2 -3.0886131334432703e+00 -1.6172445498850123e+00 -3.6891827262130628e-01 0 0 0
419 2 -5.4885191174837749e+00 -5.0163346663687216e+00 -4.3419031146666844e+00 0 0 0
761 2 -3.6231927075330770e+00 -4.7460511669917427e+00 -1.4621730581093055e+00 0 0 0
530 2 -2.3197166881074818e+00 -4.5726040890374797e+00 -4.5218386663825498e+00 0 0 0
541 2 -4.2516095197107049e+00 -2.1035542091667692e+00 -3.4343211712742217e+00 0 0 0
783 1 -1.8088075461011371e-01 -8.7073252049833627e+00 -2.4312305861549075e+00 0 0 0
135 1 -5.4783481026921130e+00 -2.7396736073758858e+00 -9.3919471737383409e-01 0 0 0
455 2 -8.6453185323919186e+00 -3.6921975425169819e-02 -3.0869832871753156e+00 0 0 0
756 1 -6.9281120419087090e+00 -7.3974662551618744e+00 -5.4974824827294340e+00 0 0 0
145 1 -7.8290024642723743e+00 -3.6580551895456694e+00 -1.0063399227376217e-02 0 0 0
691 2 -8.0873184043902899e+00 -6.5721377374319054e+00 4.6108722489494847e+00 0 0 0
682 1 -6.2323004116379090e+00 -6.5010868965012651e+00 2.9127697760348963e+00 0 0 0
678 2 -7.5548781845752524e+00 -8.6591259161042959e+00 2.2400452916308016e+00 0 0 0
679 2 -9.7308910192227209e+00 -6.6453165333257838e+00 1.6123699533918971e+00 0 0 0
753 1 -7.2536573018446893e+00 -6.6136118287491970e+00 6.2947119334207213e-01 0 0 0
749 1 -6.0286001811240473e+00 -9.7763009746432221e+00 9.5652804762311375e-02 0 0 0
681 1 -4.9935676392260948e+00 -7.7165181787467718e+00 1.3776102824814449e+00 0 0 0
680 2 -4.9390017095743026e+00 -8.7543118485731188e+00 4.0237931800290410e+00 0 0 0
717 1 -6.8522956757818587e-01 -6.2165981126529131e+00 4.4182464092076392e+00 0 0 0
708 2 -3.5029966531751708e+00 -6.0993494733528397e+00 3.2829825107570372e+00 0 0 0
696 2 -1.8179571051790442e+00 -8.7546925750481108e+00 2.9376631515252383e+00 0 0 0
714 2 -4.8377126968684103e-01 -6.4172079489624538e+00 1.9399070792442732e+00 0 0 0
763 1 -2.7015320993963963e+00 -7.1058728458424234e+00 6.0214644682140184e-01 0 0 0
765 2 -3.2441270581323396e+00 -9.8734392663731736e+00 5.5821157659410792e-01 0 0 0
784 2 -3.4021500369951296e-01 -8.8936570988240202e+00 3.0668308393302868e-01 0 0 0
148 2 -1.1062494354210861e+01 -1.2052985777340364e+00 3.3074719463642648e+00 0 0 0
695 1 -7.9918449853945299e+00 -4.8130091994324697e+00 2.2881945374426285e+00 0 0 0
146 1 -8.5777353842318291e+00 -2.6479681237563057e+00 2.3519086756936050e+00 0 0 0
136 2 -6.3893506118632413e+00 -1.7503735135748857e+00 1.4750198682917095e+00 0 0 0
684 2 -5.9688093187475673e+00 -3.9684392974451907e+00 3.9753882309702293e+00 0 0 0
689 2 -9.7449491161121724e+00 -3.7981351787177942e+00 4.4206179332078523e+00 0 0 0
138 2 -7.5671101651948467e+00 -1.5996620060601248e+00 4.6942005258179433e+00 0 0 0
692 2 -1.0732540335508993e+01 -3.6005004142761643e+00 1.1160465998156897e+00 0 0 0
715 2 -9.4085793739226875e-01 -3.7595370504880119e+00 3.0535773706836653e+00 0 0 0
764 2 -4.3925067244080757e-01 -3.3788926526447773e+00 1.4109143198614063e-01 0 0 0
707 2 -3.6993070377801605e+00 -2.5847038714848205e+00 2.4788428698454332e+00 0 0 0
683 2 -5.4661350582214911e+00 -4.7894847688225344e+00 8.7571284274132954e-01 0 0 0
254 1 -4.6350296667825264e+00 -1.6276620815686553e+00 4.7148416683738699e+00 0 0 0
720 1 -2.7234371844103245e+00 -4.6877717491530237e+00 1.0319281785859824e+00 0 0 0
229 2 -1.8712958914706910e+00 -1.0433831595288403e+00 4.3446667992453980e+00 0 0 0
224 2 -5.7266160771101959e-01 -8.1734609374188638e-01 1.7384881260947271e+00 0 0 0
685 1 -2.7596583729105348e+00 -7.6355475675496915e+00 5.3034015503611505e+00 0 0 0
706 2 -2.7407236381559046e+00 -3.7968099319798450e+00 5.4386853221817413e+00 0 0 0
699 1 -3.2171693873126639e-01 -8.5393448785247674e+00 5.4695422282989608e+00 0 0 0
686 2 -5.0448117454408585e+00 -6.1746841942034152e+00 6.0814143602380923e+00 0 0 0
718 2 -1.4164535332636077e+00 -5.7949186739958147e+00 6.9929268782807075e+00 0 0 0
724 1 -5.6735783264659800e-01 -2.0984032557742913e+00 6.4698842425208873e+00 0 0 0
688 1 -3.6812123936617693e+00 -4.6452069885404326e+00 7.8136594397430699e+00 0 0 0
694 1 -7.7882010150398040e+00 -1.7040218930392621e+00 7.4748804512767375e+00 0 0 0
726 2 -2.2473355364622932e-01 -2.2818056915014240e-01 8.6288922749741559e+00 0 0 0
693 1 -7.6386086868748153e+00 -4.0742893075657456e+00 6.1208931290481763e+00 0 0 0
147 1 -1.0015617427613083e+01 -1.5255048492860406e+00 6.0607756428428461e+00 0 0 0
687 2 -5.5533095676504329e+00 -2.8759196983899482e+00 6.9718446125441700e+00 0 0 0
702 1 -3.7797050017091487e+00 -2.3440539056003669e+00 9.1644712603130944e+00 0 0 0
703 2 -2.9368520803425033e+00 -8.5190926722146199e-01 7.1674186425916844e+00 0 0 0
705 2 -1.3537476620674986e+00 -3.3411819081801055e+00 8.5346446350019214e+00 0 0 0
143 2 -5.4979939693288209e+00 -1.1984534214412583e-01 8.8257633527088366e+00 0 0 0
139 1 -5.7040203584041906e+00 -2.4150267446404766e-01 6.3132380662995704e+00 0 0 0
510 1 -1.9804773947483261e+00 3.2170677288426286e+00 -1.7098214723717387e+01 0 0 0
509 1 -7.6780375942104440e-01 1.0026834905410271e+00 -1.7595562943170528e+01 0 0 0
93 2 -3.6205443307650649e+00 5.2291868453435759e+00 -1.7428854909461922e+01 0 0 0
84 1 -1.0622761754135480e-01 5.1889275247265045e+00 -1.8073464053471490e+01 0 0 0
98 1 -9.6606634806888647e-01 9.5504734837555585e+00 -1.6882225138384353e+01 0 0 0
94 1 -1.6354080549256806e+00 7.3188908021195607e+00 -1.7709092124122439e+01 0 0 0
113 1 -5.7054897167865493e+00 6.9633662859821017e+00 -1.6655044588409758e+01 0 0 0
449 1 -8.7245423236707182e+00 4.8654616022012021e-01 -1.4790978907409830e+01 0 0 0
439 1 -8.1605625527865069e+00 2.4327328631071721e+00 -1.3306732055881911e+01 0 0 0
422 1 -1.0339309343986059e+01 2.4705741304314990e+00 -1.3650011547637980e+01 0 0 0
496 1 -7.1188952746313481e+00 2.3315358077553348e+00 -1.5630569048968200e+01 0 0 0
77 2 -8.9643269952568545e+00 4.5867095865516427e+00 -1.4845262306777224e+01 0 0 0
436 2 -7.4533730142106434e+00 4.8045993302167407e+00 -1.2070667412808334e+01 0 0 0
97 2 -3.4397751325127000e+00 8.1290248106083371e+00 -1.5826654777017309e+01 0 0 0
421 2 -1.0687009897888052e+01 4.9305428630398156e+00 -1.2220532399863593e+01 0 0 0
68 2 -5.9400527240524754e+00 4.8336885866674386e+00 -1.4942958315881011e+01 0 0 0
497 1 -5.1175242299341717e+00 2.8379475840580417e+00 -1.6599633115825743e+01 0 0 0
495 2 -5.4203280641239324e+00 7.1890819331729379e+00 -1.2945894205049688e+01 0 0 0
101 2 -2.0762548449399438e+00 1.0795901267502197e+01 -1.4647568736255575e+01 0 0 0
575 1 -2.3551682952565307e+00 1.7908642739543281e+00 -1.2956242838780135e+01 0 0 0
532 2 -5.5253108093765801e+00 2.1096080752028499e+00 -1.3191947079020020e+01 0 0 0
505 2 -3.2026866144797324e+00 3.3680975489650553e+00 -1.4738521770203834e+01 0 0 0
508 2 -1.8526843439366514e+00 4.5323931934689945e+00 -1.1975537533400445e+01 0 0 0
577 1 -1.0221630071768755e+00 1.4819181064817739e+00 -1.5119007953672067e+01 0 0 0
543 1 -4.5420012143149311e+00 4.6100482748868155e+00 -1.2417906825334667e+01 0 0 0
507 1 -3.8746631012582422e-01 3.7716749283096469e+00 -1.3992160770685922e+01 0 0 0
579 2 -3.3422116042644272e+00 9.1351706038354463e-01 -1.6589217927899952e+01 0 0 0
117 2 -7.0167870169936064e+00 9.8081243594187324e+00 -1.1942221569637827e+01 0 0 0
71 1 -8.5920719298718016e+00 9.2900559655431412e+00 -1.3999139193496811e+01 0 0 0
76 2 -1.0204051230819122e+01 9.3510575669508995e+00 -1.1856153971205911e+01 0 0 0
69 1 -1.0001596379613224e+01 7.1071658655718144e+00 -1.3767740233088096e+01 0 0 0
72 1 -7.9819505979607746e+00 7.3833454128265590e+00 -1.2256309665186480e+01 0 0 0
70 1 -7.5752275459461949e+00 6.8965241048706041e+00 -1.4534817092735837e+01 0 0 0
114 2 -6.3196947202036551e+00 9.1530474307458984e+00 -1.5280980869128838e+01 0 0 0
503 1 -6.6919810943320857e-01 7.6044356072969777e+00 -1.1157803161226976e+01 0 0 0
442 2 -6.0340175874949447e+00 6.5661536938135215e-02 -1.5384198185909467e+01 0 0 0
88 1 -6.0236298401515920e-01 8.4273785773329450e+00 -1.4739185229430536e+01 0 0 0
572 1 -2.1256772755300357e-01 2.3639798383688571e+00 -1.1733683902971478e+01 0 0 0
96 2 -1.2411225728042281e+00 5.6371740067561555e+00 -1.5660525270672876e+01 0 0 0
506 1 -6.1135084433942488e-01 6.4714189249220837e+00 -1.3205835279001628e+01 0 0 0
102 1 -4.5675777453362381e+00 9.9288550613808511e+00 -1.3498073543215440e+01 0 0 0
100 1 -3.3408150983635156e+00 6.0722040184072155e+00 -1.4019257723054736e+01 0 0 0
90 2 -6.7347009421927562e-02 1.0497890260358149e+01 -1.1988847823184301e+01 0 0 0
95 2 -2.6231754112303456e+00 8.4915572206838821e+00 -1.2792166543174412e+01 0 0 0
452 2 -7.6076687543151396e+00 1.6680921676095157e-02 -1.2302470824479981e+01 0 0 0
486 2 -6.7075444618152407e+00 9.2671391314685314e-01 -6.5868643130352460e+00 0 0 0
485 1 -8.5341212660215309e+00 2.8452253207175007e+00 -7.4068179960359481e+00 0 0 0
468 1 -9.1189854908484822e+00 6.5638323719864844e-01 -8.6660757267032498e+00 0 0 0
472 2 -6.4759154402582944e+00 1.8631951594490690e+00 -9.7609090935282126e+00 0 0 0
469 2 -1.0863113047745790e+01 3.8396019502314434e+00 -9.1103436040135453e+00 0 0 0
528 2 -6.0923613159149701e+00 4.2360519957582321e+00 -7.7117776408866385e+00 0 0 0
438 1 -8.0892790005549315e+00 4.1988762993837092e+00 -9.5866619182312043e+00 0 0 0
504 2 -1.6952680524553800e+00 7.4179238815691599e+00 -7.6066033983975974e+00 0 0 0
559 2 -1.7216063569864679e+00 2.7404375570643063e+00 -6.1237035406923495e+00 0 0 0
556 1 -2.0438735462410480e+00 5.2323418979959657e-01 -7.9990122265854779e+00 0 0 0
554 1 -4.2165871628090184e+00 2.0649511368018110e+00 -7.6629932055082355e+00 0 0 0
563 2 -3.7067700204556440e+00 2.4784882185904875e+00 -1.0672457266704978e+01 0 0 0
564 2 -1.1516287482636283e+00 2.6333125389526120e+00 -9.3095895274914913e+00 0 0 0
557 2 -3.2077828994754243e+00 4.6129613266482519e+00 -8.1748911347937998e+00 0 0 0
561 1 -9.2644855235732793e-01 5.1960753119862950e+00 -6.6111083065969911e+00 0 0 0
492 1 -5.3481923529974020e+00 4.6099078315369333e+00 -1.0215380177130823e+01 0 0 0
555 2 -4.3655035180449447e-01 5.4647475923869253e+00 -9.3686044626624607e+00 0 0 0
501 2 -3.3564136750215314e+00 6.6793154646509638e+00 -1.0377637109459604e+01 0 0 0
493 2 -7.0935606946150642e+00 8.2626929812687386e+00 -7.1648668930709647e+00 0 0 0
434 2 -8.7343345083022559e+00 5.8543579795226286e+00 -7.3823043779240711e+00 0 0 0
433 1 -9.9889886650590753e+00 8.3466533778305809e+00 -7.5347799967337563e+00 0 0 0
437 2 -9.5028997889320639e+00 6.6653263112100811e+00 -1.0066052929398163e+01 0 0 0
73 1 -8.5665079766807786e+00 9.2203520585188379e+00 -9.4545935515231747e+00 0 0 0
491 2 -6.5815332905780277e+00 7.0142956790236513e+00 -9.8558346051211423e+00 0 0 0
75 1 -6.4582504939865801e+00 1.0192172678164372e+01 -9.0589601320317179e+00 0 0 0
250 1 -5.9762250793918161e+00 6.0886506274643235e+00 -5.8297881038351242e+00 0 0 0
236 1 -2.1792260945558808e+00 1.0132197926967391e+01 -6.4996171454378135e+00 0 0 0
248 1 -1.8345924368058739e-01 9.1419936904769230e+00 -6.0426011457186251e+00 0 0 0
44 2 -5.8862979236024024e+00 1.0974306243543840e+01 -5.7542958196430298e+00 0 0 0
4 2 -8.6682546039492614e+00 1.1060958292635219e+01 -7.0195822168038813e+00 0 0 0
500 1 -4.7220698195662933e+00 6.9076060936749046e+00 -7.9687903822703197e+00 0 0 0
107 2 -4.0827376975011047e+00 9.5936972323153320e+00 -8.3259060183817297e+00 0 0 0
105 1 -2.1766834373718806e+00 9.3120152196013688e+00 -1.0301832458672690e+01 0 0 0
558 1 -6.8495276672200089e-01 1.6045741394557894e-01 -5.6593178956889787e+00 0 0 0
108 1 -4.6252410399919430e+00 9.2892596309257609e+00 -1.0996885785884766e+01 0 0 0
441 2 -9.3452091254720902e+00 2.1729125791210966e+00 -1.1067824144886474e+01 0 0 0
270 2 -5.6310837926960406e+00 3.5166189116742119e+00 -6.3963230491255574e-01 0 0 0
271 2 -5.8758613112056066e+00 5.0101410189694704e+00 -3.1390459930023451e+00 0 0 0
161 2 -8.5386050907961106e+00 2.9979432110398689e+00 -2.2945568435037158e+00 0 0 0
171 1 -7.4539622495433111e+00 1.1177626362612385e+00 -5.5416729999719072e-01 0 0 0
169 1 -1.0060732113890356e+01 1.2070321328237743e+00 -1.0743769628446200e+00 0 0 0
193 2 -5.8560827737580965e+00 1.7420149830776401e+00 -3.2732750986579338e+00 0 0 0
484 2 -7.3966322247753258e+00 3.7979325075001369e+00 -5.1384756105204552e+00 0 0 0
198 1 -1.0887509653318027e+01 1.9192083651883307e+00 -3.3283169737799199e+00 0 0 0
470 1 -9.0858745228768054e+00 1.6414441283268635e+00 -5.0718848784004997e+00 0 0 0
239 2 -3.9538569917927067e+00 8.3460145108503632e+00 -5.5311257213357683e+00 0 0 0
289 2 -4.3599227147828179e-01 3.9805789220445287e+00 -9.7636420276710467e-01 0 0 0
551 2 -9.8602067699375617e-01 1.3706955143462185e+00 -3.3548372874304100e+00 0 0 0
295 2 -3.2710074827741886e+00 3.2568162350994290e+00 -2.7230209429643768e+00 0 0 0
296 1 -7.4816752165840328e-01 4.2477910432545007e+00 -4.1367294426266863e+00 0 0 0
274 1 -3.3365396226608821e+00 3.9830466805526876e-01 -2.2096850651865938e+00 0 0 0
553 2 -3.8449311825009915e+00 4.2283077865646695e-01 -5.2421534980374949e+00 0 0 0
566 2 -3.3720870909782024e+00 5.3123295351959374e+00 -5.2407834197575225e+00 0 0 0
232 2 -4.7948850366052458e+00 1.0904439717184683e+01 -1.4294641506990585e-01 0 0 0
2 1 -7.9530155666754094e+00 1.0858104329576067e+01 -4.2975429215027692e+00 0 0 0
172 1 -7.9187004319838472e+00 5.5480746027113552e+00 -1.1258476061469573e+00 0 0 0
168 2 -1.0016031690885038e+01 5.7554215364262644e+00 -2.7148635466394433e+00 0 0 0
273 2 -5.9203256763218004e+00 7.5299948381652992e+00 -9.8015353541873651e-01 0 0 0
166 2 -9.6269020878531286e+00 9.0702747592951347e+00 -4.9543875772659343e+00 0 0 0
170 1 -8.7671695138877315e+00 7.9441011228240148e+00 -2.4312234244938482e+00 0 0 0
435 1 -8.3212407171147955e+00 6.2804438583631201e+00 -4.6662780222535041e+00 0 0 0
221 2 -6.6932891186875496e+00 8.2503982360341972e+00 -4.1963522859208187e+00 0 0 0
154 2 -1.0256693319999698e+01 1.0386582946605623e+01 -2.1092763652824646e+00 0 0 0
165 2 -7.2985074449845522e+00 1.0456147519803334e+01 -1.7308626032683971e+00 0 0 0
284 1 -9.6912289011055114e-02 7.9115941156211864e+00 -1.7731880427860458e+00 0 0 0
283 2 -2.8217783046425335e+00 8.6450971561094736e+00 -8.7365005236187709e-01 0 0 0
285 1 -6.1849346597574850e-01 6.8307965558788926e+00 -4.8609157517537893e+00 0 0 0
25 1 -3.4953198095751166e+00 1.0792882784510859e+01 -4.5644758139131456e+00 0 0 0
293 2 -1.7551524332249433e+00 6.0462913312377395e+00 -2.6062337318642728e+00 0 0 0
288 1 -3.9714751311046226e+00 5.5668775813176374e+00 -1.0499130216704131e+00 0 0 0
238 1 -4.6463025494734929e+00 9.6022587227428744e+00 -2.8350527722998331e+00 0 0 0
321 1 -4.2273215697031103e+00 7.1072906896944312e+00 -3.1063859826320912e+00 0 0 0
241 2 -1.5351148309142095e+00 9.2129703690434450e+00 -3.7452178750541569e+00 0 0 0
465 2 -1.0456163466785764e+01 3.9808434807471160e+00 -5.2518057696046290e+00 0 0 0
527 1 -4.8069281130060251e+00 3.2017371984741230e+00 -5.3121512046971038e+00 0 0 0
287 2 -1.7699416428390242e+00 1.2992204329936803e+00 -1.4887834451500359e-01 0 0 0
432 1 -1.0555503526788325e+01 6.6894407277491430e+00 -5.3995356914209891e+00 0 0 0
157 1 -1.1037228138442092e+01 8.0419038488544636e+00 -1.2017171810362466e+00 0 0 0
180 1 -6.0401989230065434e+00 4.0099363273796813e+00 3.3296036648449236e+00 0 0 0
184 1 -8.4397102784304749e+00 3.3970098918958280e+00 3.2431751498579380e+00 0 0 0
173 1 -6.5289714953717466e+00 2.0773000381054656e+00 1.7526846136636798e+00 0 0 0
183 2 -6.8005050742048283e+00 1.6622816722052305e+00 4.5821852324755294e+00 0 0 0
191 2 -8.9740282511253273e+00 3.0683672699503206e+00 6.3042836206328257e-01 0 0 0
206 1 -9.3379107256826313e+00 5.5208684867805002e-01 4.8148730863841243e+00 0 0 0
212 1 -1.0647066417366867e+01 1.8383095468716038e+00 3.1349733342472770e+00 0 0 0
160 2 -8.6141546578481059e+00 4.3121150699360672e-01 2.2014127174977358e+00 0 0 0
213 1 -1.0700329914618973e+01 4.4207177800486992e+00 2.8894165443546926e+00 0 0 0
313 1 -2.1317661733005480e+00 8.3652192960202907e+00 2.4623234809897130e+00 0 0 0
299 2 -2.0112759177169321e+00 6.3059101378010460e+00 4.9254735559194035e-01 0 0 0
266 1 -4.1298835016116646e+00 4.0430565309069530e+00 5.2521358948605688e+00 0 0 0
268 1 -4.6082455077416835e+00 5.5144200205238141e+00 1.5127127569004697e+00 0 0 0
314 2 -1.4672500957352657e+00 3.6505348744306807e+00 5.3391652612768112e+00 0 0 0
269 2 -4.0400222609123260e+00 2.8452122129882089e+00 2.4969925638671531e+00 0 0 0
320 2 -1.1432680272677782e+00 3.7773243433489316e+00 2.0896905491041360e+00 0 0 0
227 1 -1.3779397582896038e+00 1.4368889470949224e+00 3.2423115996768059e+00 0 0 0
255 2 -3.6991354752802041e+00 1.2843095041378834e+00 4.9672798816858590e+00 0 0 0