ITEM: TIMESTEP
50000
ITEM: NUMBER OF ATOMS
884
ITEM: BOX BOUNDS pp pp pp
-2.7057867000000002e+01 2.7057867000000002e+01
-2.7057867000000002e+01 2.7057867000000002e+01
-2.7057867000000002e+01 2.7057867000000002e+01
ITEM: ATOMS id type x y z 
74 1 -7.50044 -10.5114 -5.80589 
81 2 -4.93999 -10.408 -7.47331 
77 2 -4.45969 -11.9582 -5.704 
58 2 -2.70195 -9.76559 -8.63569 
56 2 -2.99463 -12.0098 -7.62259 
52 2 -0.650569 -11.1055 -8.07392 
53 1 -1.60217 -13.092 -5.46802 
98 1 -2.43871 -9.97048 -5.95719 
78 1 -3.9757 -14.0245 -3.80482 
6 2 -0.455291 -14.738 -0.240713 
12 2 -9.83376 -9.99908 -1.73166 
73 2 -8.95159 -11.4409 -3.55154 
75 1 -6.14499 -12.0055 -3.58357 
63 1 -7.40629 -11.4411 -1.09599 
80 1 -5.20842 -9.50619 -1.73263 
79 2 -7.38449 -9.52392 -3.3215 
83 1 -1.44971 -13.1824 -2.13833 
85 1 -2.20445 -10.4737 -1.18984 
76 2 -3.53315 -11.2617 -3.5189 
2 2 -4.49184 -12.238 -1.43864 
84 2 -1.09345 -10.8793 -3.70576 
59 2 0.0940614 -10.943 -5.77766 
11 2 -11.1548 -9.07804 2.34745 
15 2 -9.43716 -10.3388 4.24761 
18 2 -7.21219 -11.0893 3.48266 
16 1 -9.16099 -10.4342 1.3817 
17 2 -6.52823 -9.8182 1.28014 
1 1 -6.10331 -12.4929 1.42423 
4 2 -3.80714 -12.5798 3.02486 
21 2 -2.20104 -11.6953 4.63346 
22 1 -4.77722 -10.0639 3.42675 
7 1 -1.8441 -10.5387 2.20709 
445 2 -0.634867 -13.0933 2.61828 
3 2 -4.32257 -10.8844 0.562901 
5 1 -2.81143 -13.1733 0.705966 
458 1 -0.112817 -9.23099 8.23795 
10 2 -7.42554 -10.5197 5.89669 
9 1 -5.40398 -10.2546 8.0162 
8 1 -4.95993 -11.8335 5.39993 
456 2 -2.75941 -9.49369 9.11452 
453 1 -2.41994 -11.6485 7.55492 
457 2 -0.612466 -10.5072 6.03992 
455 2 -0.357972 -12.8598 5.66889 
24 1 -2.92351 -9.13447 6.13106 
87 2 -0.236623 -12.335 0.154229 
126 2 -0.959603 -2.27786 -13.5808 
92 2 -8.29987 -6.2936 -9.2509 
93 2 -6.74368 -7.6341 -10.542 
107 2 -6.97796 -5.09952 -11.186 
55 2 -4.42422 -8.22859 -9.63379 
109 2 -4.75202 -6.17786 -11.3609 
113 2 -0.95328 -8.58193 -9.83287 
116 2 -2.677 -7.06095 -10.7998 
64 1 -0.332714 -6.9964 -12.1513 
112 1 -2.51932 -5.10094 -12.8886 
179 2 -9.57257 -1.6787 -10.7732 
157 2 -10.8975 -3.05471 -9.32212 
108 2 -7.40208 -2.79569 -11.9117 
111 1 -5.18303 -4.02025 -12.8735 
106 1 -5.32625 -2.79678 -10.2082 
182 1 -8.26335 -3.63573 -9.08534 
184 2 -7.39042 -0.76978 -10.3972 
141 1 -4.9901 -0.561562 -12.3229 
127 2 -2.98669 -2.61176 -12.1998 
115 1 -2.82117 -4.39596 -9.92772 
129 2 -0.251728 -3.83874 -11.7114 
195 2 -0.509897 -2.58789 -9.57636 
133 2 -2.89667 -1.34453 -10.049 
188 2 -9.07053 1.0286 -10.2492 
288 2 -10.1579 3.64635 -9.52501 
204 2 -6.54296 1.46283 -11.2513 
189 2 -5.03461 -0.106399 -9.51031 
206 2 -7.66609 3.21136 -9.68149 
207 1 -4.73907 2.57534 -9.47902 
203 1 -5.82815 4.1704 -11.9197 
205 2 -4.01358 2.0494 -12.2072 
132 1 -1.98365 -0.0043951 -12.3599 
213 2 -0.908137 0.0696789 -9.53148 
211 2 -2.16352 2.00869 -10.5053 
408 2 -0.560899 4.10536 -10.2104 
405 1 -2.40187 4.51009 -12.046 
208 2 -2.56131 4.02403 -8.9808 
293 1 -6.67734 5.91763 -9.2362 
202 2 -4.1637 5.40891 -10.2316 
407 2 -0.882682 6.79803 -11.8781 
404 2 -3.14452 7.34608 -11.2037 
423 1 -1.60343 6.61714 -9.22435 
90 2 -9.21026 -7.67798 -6.8619 
94 2 -11.4311 -7.08213 -5.78142 
159 1 -10.4511 -5.22731 -7.69476 
158 1 -9.45758 -5.62858 -4.58185 
110 1 -5.55377 -5.69864 -8.82935 
91 1 -6.83264 -8.3617 -7.9105 
89 2 -7.35984 -7.73318 -5.17967 
96 1 -5.19976 -5.97161 -5.74384 
162 2 -7.77025 -5.69407 -6.89615 
82 1 -5.06112 -9.10477 -4.7283 
101 1 -0.0282371 -8.33101 -4.56504 
95 2 -4.28028 -8.06572 -7.1479 
307 2 0.339245 6.84714 -1.97925 
99 1 -2.28326 -6.66269 -8.17163 
97 2 -2.70409 -7.46563 -5.3739 
102 2 -0.276586 -6.04939 -6.4057 
171 1 -2.37778 -4.89199 -4.62115 
160 2 -10.99 -2.65103 -6.68847 
156 2 -11.8678 -4.65589 -5.31573 
183 1 -9.49015 -0.861585 -8.18889 
264 2 -12.3157 -0.513456 -7.41748 
242 1 -13.1883 -2.01682 -5.39214 
161 1 -8.42155 -2.97966 -6.13395 
181 2 -6.10731 -3.5672 -7.26703 
190 2 -6.26963 -1.57319 -5.57904 
186 2 -6.65887 -1.51025 -8.07811 
167 2 -6.95076 -4.41807 -4.41727 
169 2 -4.58695 -3.31065 -5.14304 
192 1 -3.89278 -1.85919 -7.4503 
114 2 -3.693 -4.3943 -7.1818 
118 2 -1.32918 -3.78533 -7.41158 
196 2 -2.22536 -2.30583 -5.20048 
194 1 -0.873156 -1.09105 -7.1516 
191 2 -4.1125 -0.882442 -4.66553 
248 1 -10.6318 -0.0427904 -5.27614 
180 2 -11.166 1.15583 -8.98157 
267 1 -9.14451 2.19914 -7.44109 
265 2 -11.7625 1.93073 -6.77102 
246 2 -13.1409 0.714399 -4.99036 
266 2 -12.9667 3.26511 -4.98289 
268 2 -10.5086 2.97516 -4.94636 
187 2 -7.83785 0.0531936 -6.28929 
185 2 -7.14519 0.954142 -8.76846 
193 1 -5.36503 0.926652 -6.6501 
271 2 -6.46249 3.41795 -7.54615 
270 2 -8.36902 3.80893 -5.57725 
279 2 -6.06771 3.03322 -5.25067 
297 2 -3.6786 3.0548 -6.90679 
209 2 -2.92545 0.787862 -8.49054 
210 2 -2.51691 0.507972 -5.9512 
212 1 -0.785214 2.34111 -8.0456 
214 1 -0.555457 2.34837 -4.87337 
291 2 -10.2592 6.21833 -8.89041 
269 1 -11.3317 4.58655 -6.99275 
355 2 -11.0684 7.14008 -6.4553 
342 2 -9.19359 6.07635 -5.06112 
289 2 -6.01276 8.6135 -9.03918 
292 2 -8.83417 4.85808 -7.81591 
290 1 -8.46535 7.67963 -7.16688 
299 2 -5.57516 7.41104 -6.81479 
294 2 -6.96057 5.52683 -6.38511 
298 1 -4.41141 5.36443 -5.18976 
296 2 -4.57846 5.04074 -7.88068 
300 2 -4.28792 8.27255 -5.00436 
424 2 -4.15429 7.23434 -8.82062 
301 1 -1.64101 4.79122 -6.43281 
435 2 -0.714868 7.40377 -6.50283 
295 2 -2.9306 7.20885 -6.69906 
144 1 -9.78428 -8.73672 -4.30982 
143 1 -11.3428 -8.1743 -0.296702 
142 1 -12.1126 -6.6769 -3.03321 
145 2 -9.55682 -6.99709 -2.2318 
220 2 -12.2797 -5.32501 -0.415351 
225 2 -10.7586 -4.77131 -2.12734 
146 1 -7.9538 -8.36818 -0.73409 
148 2 -5.24427 -6.92618 -0.78303 
149 1 -6.79469 -6.71689 -2.8466 
166 2 -4.77892 -4.78727 -3.12285 
228 1 -9.30185 -5.54511 0.0357355 
88 2 -2.54423 -8.89534 -3.3021 
104 2 -1.61231 -6.72752 -2.95797 
170 2 -4.11672 -7.05201 -3.12843 
100 2 -0.454409 -8.33759 -1.78706 
154 2 -2.76617 -7.61038 -1.08821 
173 1 -3.14523 -4.93487 -1.08812 
221 2 -12.9861 -3.79384 -3.20407 
163 1 -10.3892 -2.82077 -3.65685 
244 2 -12.4423 -0.867664 -2.94697 
247 1 -10.0525 -0.161836 -1.88708 
222 1 -11.9386 -2.53747 -0.792271 
164 1 -6.16015 -4.51359 -0.340994 
165 2 -8.3057 -4.4571 -2.39985 
250 2 -8.30832 -1.17823 -4.07717 
168 1 -6.35031 -2.42702 -2.82162 
251 1 -8.84181 -2.34568 -0.656684 
174 2 -4.6999 -2.2459 -0.774278 
172 2 -3.49335 -2.74968 -2.79373 
176 2 -0.98671 -3.62918 -2.54163 
177 1 -2.05401 -1.95571 -0.540048 
274 2 -4.48405 0.109868 -2.26109 
197 1 -1.89184 -0.319296 -3.32023 
273 2 -9.14507 4.04234 -3.25493 
249 1 -11.7601 1.89556 -2.84068 
343 1 -10.3898 4.3445 -1.11087 
245 2 -12.6544 0.37902 -0.562125 
338 2 -13.1353 4.0957 -2.52564 
256 2 -8.72155 2.17903 -1.54903 
253 2 -7.08319 0.0570196 -1.73917 
272 1 -8.36679 1.51106 -4.09645 
276 2 -6.14293 0.414206 -4.03825 
278 2 -6.21389 2.31786 -2.60507 
277 2 -4.81899 4.41377 -2.62933 
302 2 -2.10702 4.34687 -3.80345 
275 1 -3.74631 2.12652 -4.1415 
284 2 -1.75352 2.37382 -2.33588 
283 2 -2.42585 0.798655 -0.802934 
285 2 -4.05342 2.38298 -1.22282 
708 2 -0.721153 2.7317 -0.289705 
325 2 -12.7384 5.69182 -0.777732 
356 1 -9.95492 8.48401 -4.30715 
339 1 -11.4473 5.5592 -3.87856 
340 1 -10.99 7.69613 -1.19597 
345 2 -8.88715 6.39984 -2.43637 
365 1 -4.45843 7.149 -2.52433 
360 1 -6.98395 7.75077 -4.27904 
280 2 -6.86203 4.94643 -4.01417 
281 1 -7.06231 4.74571 -1.29403 
347 1 -6.935 7.64904 -0.655832 
305 1 -1.7067 7.23043 -4.00367 
367 2 -2.07101 8.00243 -1.04013 
286 1 -2.39792 5.00286 -1.39647 
117 1 -0.0197068 -5.63731 -9.6259 
428 2 -1.58861 9.09806 -7.98192 
243 2 -10.7407 1.81805 0.0197016 
324 1 -13.1264 2.96599 0.0873223 
282 2 -4.59801 4.26954 0.23518 
255 2 -6.636 2.29015 -0.280947 
409 2 -1.13799 2.4649 -13.2058 
13 1 -11.4367 -5.98871 2.19006 
28 2 -10.3165 -7.62003 4.16091 
14 2 -9.3437 -7.77448 1.7339 
29 2 -11.1314 -5.25235 4.71501 
32 2 -9.07812 -5.88148 3.1736 
235 1 -6.60451 -5.2096 4.06495 
147 1 -6.83716 -6.97153 1.60293 
20 2 -5.07208 -7.40911 3.75775 
19 1 -7.70592 -8.41001 4.07265 
583 2 -1.60281 -6.07584 3.61138 
150 1 -3.94682 -5.44207 2.0088 
153 2 -2.76976 -8.08816 3.32518 
151 1 -1.13559 -7.33537 1.10023 
152 1 -4.21167 -8.28069 1.14289 
226 2 -13.4505 -1.38374 1.23424 
310 2 -13.4993 -1.0867 3.73926 
223 2 -12.841 -3.72203 1.58511 
230 2 -10.3384 -3.48821 1.68371 
224 1 -10.9856 -0.682563 1.33713 
227 1 -11.7383 -2.80526 3.90758 
233 2 -7.79866 -3.8521 1.85594 
237 2 -6.5824 -2.46818 3.51137 
231 2 -8.70559 -1.57821 2.55473 
252 2 -6.60606 -1.98242 0.74861 
257 2 -6.55086 -0.0620617 2.69276 
175 2 -1.49787 -4.40984 1.02915 
236 2 -2.21895 -3.65929 3.48904 
258 1 -4.06459 -2.3236 1.90731 
686 2 -2.55601 -0.824253 3.92131 
608 2 -1.07737 -2.04561 2.08953 
691 2 -0.475061 0.311093 3.15212 
315 1 -10.9566 0.193826 4.05485 
309 1 -13.4025 1.28635 2.33517 
585 2 -0.684569 -8.78999 4.12236 
774 2 0.0810139 4.16985 11.2405 
328 1 -10.8048 2.81155 2.46455 
323 2 -13.2199 4.2951 2.36138 
259 1 -5.05011 0.308552 0.393728 
254 1 -8.22238 0.64176 0.776263 
327 2 -8.49107 3.44351 0.712022 
337 1 -6.03315 3.16658 2.15999 
332 2 -8.41414 1.93672 3.10487 
791 2 0.18367 8.05788 2.86129 
839 2 -1.10131 8.07151 9.85377 
261 2 -2.4364 -0.181678 1.54445 
713 2 -0.267344 2.62164 2.46443 
260 2 -4.16471 0.618259 2.88257 
263 1 -2.99288 2.51415 1.44769 
773 2 -1.57625 4.29024 3.82278 
689 2 -2.0731 1.88714 4.13136 
330 2 -11.2457 5.37117 1.10981 
382 1 -10.652 8.05281 1.91715 
331 2 -11.6419 5.73099 3.55081 
346 2 -8.99845 6.37764 0.323027 
329 1 -8.87949 4.93705 2.93538 
350 2 -6.48473 5.78429 1.14075 
352 1 -5.81098 8.95519 1.89132 
348 2 -7.92305 7.45946 2.22542 
334 1 -5.79474 6.0344 3.62497 
349 2 -3.45915 5.0113 2.54629 
287 2 -1.49252 4.78902 1.28958 
786 2 -0.505484 7.10073 0.593768 
351 1 -3.80345 6.67279 0.524048 
788 2 -1.67553 6.71815 2.8243 
353 2 -3.83967 7.65166 3.28134 
25 2 -9.45024 -8.85146 6.37968 
33 2 -10.198 -5.10026 8.53769 
27 2 -9.52345 -7.46058 8.44543 
38 2 -7.34245 -8.32917 7.51073 
39 1 -7.43555 -5.72132 9.0644 
31 1 -8.87979 -6.14994 6.12341 
37 2 -6.13819 -6.60777 6.24145 
471 1 -4.71947 -7.27535 8.4149 
23 2 -5.60307 -8.87381 5.81274 
588 1 -0.591494 -4.5767 5.71528 
155 1 -3.39846 -6.00396 5.58484 
460 2 -2.07111 -7.37233 8.17086 
470 2 -2.17321 -4.86119 7.85746 
589 2 -0.838304 -7.32688 6.04238 
30 2 -10.8278 -3.65226 6.55082 
41 2 -12.7841 -1.44908 6.37247 
234 2 -10.3041 -1.39067 5.99592 
42 1 -11.2262 -1.76064 8.41719 
35 1 -5.19669 -4.19513 6.98216 
229 1 -8.9476 -3.3159 4.51548 
36 2 -8.53053 -3.48205 7.41969 
240 2 -6.75332 -2.24862 6.15585 
318 2 -8.49347 -1.06349 7.64295 
232 1 -8.08437 -0.169962 5.02664 
239 2 -4.94362 -1.14317 4.69044 
241 2 -4.65478 -1.53672 7.20896 
687 2 -0.443083 -2.08617 4.40655 
238 2 -4.44088 -3.56082 4.38937 
668 2 -0.484793 -3.19841 8.09174 
667 1 -2.53045 -2.45523 6.1032 
669 1 -1.51983 -0.510082 8.24546 
311 2 -13.4508 0.99036 5.02508 
312 1 -11.2486 0.975858 7.00536 
314 1 -12.4141 3.3861 4.88104 
326 2 -9.95857 4.93326 5.43998 
313 2 -9.85741 2.41864 5.13271 
374 2 -10.6355 3.74793 7.38525 
321 2 -6.21773 0.183262 6.91698 
316 1 -8.40293 1.81083 7.76967 
262 2 -5.84781 1.36535 4.50105 
333 1 -7.4261 3.34082 5.17495 
317 2 -5.65832 2.36476 7.03786 
690 2 -0.834556 0.163072 5.52945 
671 1 -3.53479 0.735571 6.18384 
769 2 -1.03097 1.90738 7.1586 
772 1 -2.21609 4.22314 6.8063 
335 1 -4.23377 3.2928 4.57449 
755 1 -3.35982 2.38083 8.72477 
373 2 -11.9789 5.74624 6.00287 
377 2 -9.77703 7.12212 4.36516 
380 1 -9.51936 7.16151 7.19305 
320 2 -7.88615 4.79165 7.38689 
336 1 -5.26287 5.33761 6.68702 
378 2 -7.8031 6.0743 5.46532 
387 1 -7.27418 8.5275 4.73628 
381 2 -6.62136 7.54317 7.12588 
386 2 -4.63508 7.8996 5.64585 
789 1 -0.230073 6.27428 5.43271 
771 2 -3.02814 6.06362 4.94503 
792 1 -1.96211 8.80209 5.05165 
823 1 -2.83267 7.33697 7.67813 
787 2 -0.272137 7.74638 7.59735 
26 2 -6.82301 -8.26891 9.87446 
34 1 -5.49332 -6.4777 11.4495 
469 2 -5.12283 -4.62372 9.6191 
472 1 -1.17287 -7.63325 10.8374 
476 2 -0.802348 -5.49784 12.4989 
467 2 -2.97819 -6.91609 12.5595 
473 2 -3.03463 -5.84115 10.0755 
474 2 -0.946341 -4.50113 10.3963 
468 2 -4.0126 -8.42093 10.8788 
46 2 -9.1174 -0.268374 9.82322 
43 1 -6.29724 -2.33589 9.00788 
45 1 -8.91743 -3.15924 10.176 
47 2 -6.47043 -3.7638 11.482 
44 2 -7.56136 -1.17144 11.4502 
673 2 -0.347988 -2.04456 10.3147 
483 1 -3.67619 -4.24504 12.168 
666 1 -3.24231 -2.78811 9.38775 
475 2 -1.81591 -2.49843 11.9992 
485 1 -4.85916 -1.43546 11.7113 
753 2 -4.02807 -0.329931 8.92599 
40 2 -10.7176 2.10843 9.19969 
375 2 -9.21248 4.08158 9.28782 
319 1 -6.49067 0.595171 9.57911 
484 2 -6.39561 0.703905 12.6476 
322 1 -8.57359 2.07539 11.1151 
752 1 -6.20711 3.69326 9.26344 
376 2 -7.80416 4.6087 11.6485 
820 2 -5.95378 3.10488 11.9259 
756 1 -2.01845 0.30717 11.1317 
758 2 -0.724639 2.34668 9.63877 
754 2 -4.50304 1.34733 10.9451 
757 1 -2.95565 3.78855 11.4432 
393 1 -7.65801 6.47595 9.52805 
824 2 -5.0081 7.04416 9.08337 
821 2 -5.11655 5.47167 11.0582 
825 2 -2.93858 6.77978 10.7782 
826 1 -0.985319 5.36911 9.18504 
822 2 -1.14247 5.97422 12.2028 
770 2 -3.66969 5.1108 9.20792 
762 2 -1.02494 3.52319 13.4656 
486 2 -2.77488 -0.812235 13.4085 
763 2 -1.3137 1.13892 13.7065 
487 1 -4.037 1.44747 13.4533 
426 1 -0.754362 9.69077 -10.5181 
427 2 -3.35132 9.36764 -9.72764 
422 2 -5.09608 11.1102 -8.80923 
357 1 -6.55504 10.1766 -6.72351 
425 2 -3.98668 9.53324 -7.38505 
438 2 -4.00272 11.8745 -6.54033 
429 2 -2.4661 11.2057 -8.59333 
439 2 -1.79733 12.7334 -5.75937 
434 1 -1.97661 10.0612 -5.30118 
441 2 -0.077366 14.0044 -4.63535 
436 1 0.183009 11.3932 -7.72652 
341 1 -8.72906 9.50233 -1.83328 
359 2 -7.73333 10.2168 -4.31618 
364 1 -4.9226 10.6748 -4.34957 
361 2 -5.9309 9.51122 -2.39103 
363 1 -7.19805 12.2038 -2.54656 
371 1 -4.36271 12.1223 -1.68147 
368 2 -4.25311 9.23607 -0.452286 
366 2 -2.11704 13.2669 -0.398352 
370 2 -2.10204 10.6185 -0.687427 
442 1 -1.67335 12.1976 -3.01804 
308 1 -0.139816 9.51175 -2.47586 
369 2 -3.0593 9.46556 -2.80772 
440 2 -3.8608 13.0413 -4.2195 
384 2 -10.6647 10.0686 0.254195 
385 2 -9.04569 9.86286 3.20147 
390 2 -8.65321 11.6443 0.018755 
362 2 -6.47974 13.0334 -0.0359659 
383 1 -7.08057 11.6192 2.37434 
389 2 -4.72604 12.8692 3.72124 
344 2 -8.42107 9.40467 0.980052 
388 1 -4.75181 10.259 4.13994 
372 1 -4.13806 11.7014 1.24264 
805 2 -0.0539312 10.3643 3.29734 
810 2 -1.09942 11.7613 1.25146 
835 2 -2.39503 11.3694 3.57743 
836 1 -0.0522212 13.2374 3.65755 
354 1 -2.30845 9.25714 1.7694 
391 1 -2.64944 14.037 2.27698 
838 2 -3.77838 8.94997 9.77981 
379 2 -9.7306 9.47152 5.58229 
396 1 -5.08919 9.74676 7.4202 
395 2 -5.21983 12.1565 6.08648 
394 1 -7.53907 11.3665 5.38498 
392 2 -8.02347 9.42944 7.26417 
832 2 -0.740857 11.4748 5.52218 
831 1 -1.46611 10.0611 8.00592 
397 2 -2.62919 13.2564 5.05094 
830 2 -3.13323 11.0566 6.16227 
358 2 -6.23397 10.7017 -0.209867 
50 2 1.02904 -10.0836 -9.96688 
51 2 6.05405 -9.20651 -10.0803 
49 2 1.87185 -10.8792 -7.62949 
48 2 1.0847 -12.8809 -6.47513 
62 1 2.59337 -11.0426 -4.77796 
499 1 8.97071 -9.34238 -2.9138 
68 1 3.50914 -9.08245 -8.94046 
61 2 4.35256 -10.4774 -6.61142 
496 2 7.28024 -10.2241 -4.9391 
489 2 6.16672 -8.95846 -7.28577 
54 2 0.637825 -12.7692 -3.96 
491 2 3.4654 -12.6966 -2.5927 
531 2 3.71572 -10.1199 -2.43489 
512 2 1.38654 -13.2797 -1.44988 
86 1 0.905812 -10.6438 -2.2537 
514 1 2.70119 -11.0427 0.0919074 
492 2 3.95057 -13.379 -0.24301 
495 2 5.09956 -11.3052 -4.06106 
535 2 7.63525 -10.39 -0.818102 
494 2 5.35468 -11.6468 -1.41112 
498 2 6.16815 -9.37562 -2.6356 
493 2 7.43983 -11.6102 -2.9188 
533 2 4.93247 -8.99072 -0.616501 
446 1 1.70894 -13.8584 1.29858 
448 2 0.294262 -11.1009 4.09309 
513 2 2.71466 -10.8098 3.54553 
447 2 1.68045 -13.0093 3.88006 
515 2 0.94317 -11.3631 1.91506 
518 2 4.00933 -12.4469 2.23982 
516 2 3.9812 -9.08521 1.60136 
511 2 0.0964368 -9.78087 0.351604 
521 1 5.67104 -10.4718 3.4304 
519 2 8.2538 -10.6297 1.98314 
520 2 5.72661 -10.9622 0.789724 
544 2 10.5122 -9.52516 2.88594 
450 2 4.15392 -12.2849 4.7125 
449 2 2.08804 -11.5328 5.96215 
454 2 0.554305 -11.7851 7.77524 
461 1 3.05241 -10.3027 8.21086 
452 2 3.95171 -9.93861 5.64187 
525 1 8.47922 -10.3058 4.79394 
451 1 6.18296 -11.3119 6.64373 
517 2 6.07713 -8.84378 5.57309 
465 2 5.45974 -9.00493 7.94802 
598 2 7.91678 -8.99754 7.28883 
69 2 0.021811 -4.85496 -13.9106 
398 1 0.408766 0.10619 -14.0103 
67 2 4.33092 -7.44053 -11.1243 
65 2 1.76107 -7.6739 -10.3452 
123 1 3.39725 -5.33833 -9.57008 
70 1 2.23478 -5.46757 -12.1731 
873 2 11.4383 8.85855 -2.54507 
502 1 6.03919 -6.70721 -9.07885 
508 2 8.15575 -5.44815 -10.1843 
71 1 5.9254 -5.2787 -11.8398 
134 2 1.72166 -3.09192 -10.4422 
137 1 4.17007 -2.24789 -11.1544 
131 1 1.71314 -2.70068 -13.3266 
125 1 1.82875 -0.636205 -9.21259 
130 2 0.145102 -1.39245 -11.5077 
139 2 2.34256 -0.418333 -11.8491 
128 2 4.18255 -3.86205 -13.3544 
135 2 5.62887 -3.93961 -9.50286 
510 1 7.9342 -2.67186 -10.1958 
72 2 6.27069 -2.62641 -12.8114 
840 2 6.75007 -0.726485 -11.4867 
400 2 4.11828 -1.29191 -13.6905 
570 1 10.3233 -1.04545 -9.04334 
401 2 3.09611 1.69525 -10.6196 
399 2 2.57225 1.52486 -13.2294 
413 2 1.82584 3.55846 -9.42727 
412 2 2.51567 3.70348 -11.7303 
411 1 0.540897 1.71233 -11.2589 
402 2 4.69298 0.512941 -12.138 
416 1 4.75718 3.528 -9.36121 
403 2 4.9019 3.00444 -12.1344 
136 1 5.00369 0.258252 -9.28496 
842 2 8.79639 -0.172275 -11.0611 
843 1 7.14976 1.90434 -10.7968 
567 2 7.70268 -0.106532 -8.9178 
851 2 7.42918 4.23038 -8.83419 
844 1 9.70809 2.31291 -9.08366 
406 2 0.246383 4.24729 -12.4491 
414 2 4.11598 5.25447 -11.2142 
410 1 1.41568 6.03152 -10.8025 
417 2 3.55484 7.68486 -10.3291 
421 2 1.43238 8.61434 -11.4221 
419 2 6.68029 4.68877 -11.1763 
853 2 8.54335 6.21575 -9.62945 
848 1 6.03355 6.53116 -9.22981 
66 2 4.25513 -7.18792 -7.16353 
103 2 1.89607 -6.59632 -7.97948 
60 2 2.46896 -8.727 -6.07109 
122 1 2.29974 -5.95606 -5.44736 
490 2 8.19209 -8.51524 -8.77542 
501 2 8.87823 -6.40819 -7.8502 
497 1 4.99897 -8.52052 -4.92095 
504 1 8.86382 -8.51612 -6.10736 
503 2 6.72799 -6.76858 -6.37802 
551 1 8.25541 -4.77409 -5.39199 
505 2 11.1047 -8.36115 -4.23099 
506 1 11.0563 -6.16115 -5.93723 
121 1 0.283053 -3.23633 -4.95751 
138 2 3.64116 -2.7028 -8.50228 
124 2 3.20919 -3.22826 -5.89434 
120 1 1.37414 -3.88958 -7.8553 
201 2 1.71089 -1.59906 -6.75587 
198 2 0.557389 -0.174637 -4.69008 
140 1 3.90877 -0.504858 -6.75264 
119 1 5.1061 -4.64785 -6.93468 
565 2 7.46795 -4.46107 -8.03391 
566 2 6.01454 -2.0735 -8.14339 
553 1 5.96514 -2.5462 -4.88428 
568 1 8.40629 -2.18776 -6.9469 
569 2 6.61071 -0.131853 -6.37535 
509 1 10.1632 -4.20724 -8.7019 
572 2 10.7095 -3.38602 -6.14907 
507 2 12.7954 -4.32737 -4.93699 
577 2 12.138 -1.83924 -4.54708 
576 2 9.9013 -1.37835 -4.89041 
575 2 11.5612 -1.31175 -6.85662 
215 2 2.94937 1.75583 -8.28989 
216 2 1.12789 0.915678 -6.79197 
218 2 2.61324 1.24193 -4.80061 
217 1 2.05984 3.58019 -6.57304 
645 2 4.6911 2.0477 -6.57346 
648 2 6.91804 2.13379 -5.54364 
841 2 6.93983 1.99596 -7.94385 
850 2 8.72798 3.60762 -6.7566 
647 2 7.54072 4.35147 -4.71389 
573 1 9.22494 0.806705 -6.66512 
845 2 11.8987 1.00617 -7.7261 
578 1 11.7914 0.720421 -4.96357 
846 2 11.0446 2.96913 -6.56145 
847 2 4.20862 8.5158 -8.05339 
432 2 2.94521 8.17743 -5.95192 
415 1 3.1769 5.93646 -8.18501 
646 2 3.54379 5.94873 -5.39885 
303 2 1.26446 6.20368 -6.24341 
418 2 0.419533 5.11588 -8.27662 
431 1 1.13938 8.22328 -8.51966 
864 1 5.82194 7.51074 -6.11687 
849 1 5.70934 4.50923 -6.68229 
852 1 8.27163 6.36814 -6.9774 
304 2 0.248115 5.25496 -4.38928 
860 2 8.00925 6.65863 -4.30039 
857 2 10.0561 4.88095 -8.44181 
856 2 10.0542 7.89552 -4.89103 
855 1 11.0649 5.67493 -6.20408 
527 2 2.4393 -8.3388 -3.52354 
105 2 0.301999 -5.69814 -3.84145 
178 1 0.0421424 -5.59758 -1.12769 
529 2 2.57075 -6.0504 -2.77445 
530 1 2.136 -8.16534 -0.895754 
528 2 2.79542 -5.16873 -0.455636 
550 2 5.23001 -5.69302 -4.40844 
547 2 7.18151 -7.29147 -4.0851 
532 2 4.62867 -7.49438 -2.37832 
539 1 7.21696 -7.23529 -1.32917 
552 2 5.13496 -5.25727 -1.9663 
558 2 7.7636 -5.03242 -2.8452 
541 2 6.59548 -4.75304 -0.287243 
536 2 9.50834 -6.63145 -3.63016 
560 1 12.4897 -6.22256 -2.81516 
500 2 11.3647 -8.38553 -1.81565 
554 2 9.97206 -6.38092 -1.34284 
562 2 11.4755 -4.48283 -0.848715 
548 2 3.72282 -3.93589 -3.70504 
626 1 3.00485 -1.32816 -3.93713 
199 2 0.404243 -1.45289 -2.58495 
625 2 1.50121 -3.56759 -2.66698 
630 1 4.07111 -2.80978 -1.38785 
627 2 2.40065 -0.740123 -1.38803 
557 2 8.37734 -2.55023 -3.46805 
549 2 6.59105 -3.00124 -2.0029 
556 1 9.02325 -3.67375 -0.852436 
555 2 5.55048 -0.942984 -2.70062 
636 1 7.50373 -0.374057 -1.02708 
559 1 10.544 -3.98432 -3.44259 
563 1 13.0993 -2.74711 -2.38221 
580 2 11.2183 -2.24021 -0.321706 
574 1 10.3518 -0.782679 -2.39417 
581 1 13.183 -0.339067 -0.167644 
579 2 13.2457 0.0214459 -2.91798 
652 2 2.65955 3.30765 -1.32526 
200 1 0.990131 1.26635 -2.49186 
219 2 1.79925 3.48611 -3.96602 
709 2 0.0301367 4.02901 -2.31439 
649 1 4.55564 3.26732 -4.15028 
644 2 5.05542 0.487226 -4.54056 
629 1 4.61555 1.24317 -1.5952 
571 1 7.66896 -0.0236184 -3.92494 
635 2 6.77944 2.66555 -0.124517 
653 2 6.89638 2.23907 -2.68932 
650 2 5.0682 4.03786 -1.40574 
656 2 9.17499 1.99674 -1.37517 
657 1 9.51965 2.43466 -4.10518 
861 1 12.5493 3.62708 -4.09313 
655 2 11.7315 1.74131 -2.14943 
659 1 10.8936 4.24275 -1.4763 
858 1 12.189 6.44847 -3.39625 
664 1 14.1072 2.29869 -1.40184 
716 2 0.359991 5.02788 -0.248465 
306 2 1.11543 7.56401 -4.26776 
863 2 4.02642 7.84961 -3.68176 
735 1 2.83105 5.65271 -2.89585 
734 1 2.76038 8.32701 -1.2843 
738 2 5.48077 8.86449 -0.829232 
744 2 7.40112 7.62634 -0.523581 
871 1 6.63869 8.51588 -3.15285 
736 2 5.32361 6.56962 -1.51473 
651 2 5.56742 5.81717 -3.92781 
658 1 7.67975 4.68852 -2.11088 
57 1 0.158382 -8.65056 -7.63698 
862 2 13.299 5.09903 -1.23605 
742 1 9.46001 7.11376 -2.21057 
876 2 11.7381 7.08211 -0.757669 
859 2 9.96166 5.12385 -3.90082 
604 1 1.03518 -2.80115 -0.124057 
631 2 2.37714 1.18769 0.0443779 
584 2 0.673557 -6.70566 4.12484 
594 1 3.16091 -5.60902 3.50761 
596 2 3.67651 -8.32434 3.85105 
582 1 1.46747 -8.6229 2.3709 
605 2 1.78413 -6.38992 1.24538 
603 1 0.601427 -4.58098 2.54707 
522 1 6.03192 -7.26384 3.31155 
609 2 6.21996 -4.65562 2.28098 
523 2 8.51189 -8.28908 3.02047 
615 1 8.53929 -5.41495 4.2001 
540 1 8.45995 -6.15457 1.23209 
538 2 6.64074 -8.6953 1.03338 
534 1 4.68516 -6.53814 0.753286 
542 2 10.4826 -7.05625 2.67624 
545 2 13.1708 -5.41328 2.48772 
543 1 12.0535 -6.76501 0.352202 
537 1 9.64198 -8.83024 0.344539 
607 1 1.67609 -1.62097 2.78877 
628 1 3.55149 -0.921193 0.914371 
606 2 3.46979 -3.68028 1.3806 
781 2 7.82709 6.4262 10.7157 
614 1 6.26495 -2.40085 0.837011 
632 1 7.25277 -0.300213 3.11405 
610 1 4.37721 -2.70276 3.61157 
612 2 7.26974 -2.92724 4.18276 
611 2 8.33623 -3.52973 2.10607 
546 1 10.9173 -4.25111 1.86145 
638 2 11.945 -0.636314 4.43415 
618 1 10.005 -2.46769 3.98337 
621 2 12.7662 -3.04827 3.47939 
561 2 11.5074 -1.39982 1.98563 
639 2 9.02865 -1.44572 1.08865 
564 1 13.5009 -3.26655 0.752944 
640 2 9.78391 0.248885 2.88333 
641 1 14.1436 -0.544129 3.01136 
710 1 -0.0470936 0.145761 0.358647 
711 2 1.72752 1.09747 2.28438 
714 2 2.50005 3.20213 3.34205 
715 2 1.52516 3.22677 0.891472 
718 1 4.23429 2.96854 1.22584 
696 1 4.30138 0.570968 3.42709 
801 2 6.96268 8.4504 9.46568 
654 2 8.91242 3.75337 0.40951 
720 2 4.8564 3.15618 4.19517 
721 1 7.09665 2.80434 2.6122 
634 2 5.89527 0.70871 0.922712 
637 2 8.51951 1.13422 1.03744 
727 2 8.87399 3.66167 4.79098 
723 1 10.1985 2.96094 2.56279 
643 2 12.9293 3.20878 2.72193 
642 2 12.9806 1.41295 4.6719 
662 2 12.0198 0.923774 2.34972 
728 2 11.6615 3.3168 4.95502 
661 2 11.7085 2.45306 0.463404 
663 2 14.2311 1.60315 1.53637 
660 2 13.9546 3.99327 0.825621 
712 1 0.874001 5.28583 2.65995 
811 2 2.59806 7.64671 1.62507 
719 1 4.11615 5.49023 2.98252 
814 2 4.5633 8.40142 3.10354 
783 2 4.46031 4.81264 9.88198 
741 2 4.86901 7.41933 0.833322 
793 2 2.2427 7.30988 4.16089 
733 1 2.98643 5.57699 0.0971415 
722 2 6.62216 4.70955 4.43566 
740 1 6.4507 5.28385 0.723797 
739 2 6.55549 6.83236 2.95826 
750 2 8.54418 7.51336 1.97304 
746 2 8.55982 5.18139 2.65688 
732 2 10.697 5.36082 4.11267 
665 1 11.6009 5.32818 1.31796 
749 2 10.8604 8.00215 1.55684 
747 2 9.96248 8.1183 3.94412 
590 2 1.78227 -5.92777 6.00076 
459 1 0.33761 -6.09105 8.45427 
595 2 2.97909 -5.37944 8.46963 
462 2 2.39004 -7.77186 8.04889 
587 1 1.51051 -8.7791 5.63777 
597 2 5.71149 -4.82086 4.65018 
524 2 8.07295 -7.90576 5.27043 
591 1 4.31155 -7.02018 6.25375 
600 2 7.04202 -6.03429 6.34919 
466 2 7.12247 -7.19305 8.82822 
593 2 5.43032 -5.30809 8.36501 
599 2 7.9632 -4.95349 8.41777 
620 1 11.5609 -5.31694 4.69763 
526 2 10.2931 -7.93686 4.89 
601 1 9.62069 -6.7745 7.26054 
592 2 4.01648 -4.11672 6.18564 
586 2 1.84995 -3.5204 4.84124 
676 2 1.7655 -3.52304 7.21768 
677 2 1.56728 -1.51756 8.63841 
670 2 0.577005 -1.45161 6.51429 
693 1 3.35091 -1.25771 6.28159 
678 1 4.14545 -2.7448 8.59842 
619 2 8.30692 -1.01557 5.63568 
697 2 5.8302 -0.868704 5.32761 
613 1 6.56378 -3.11936 6.59347 
700 2 6.09494 -0.796871 7.80008 
701 2 8.65265 -1.81606 8.08395 
622 2 12.2643 -2.54477 6.00209 
616 1 9.72951 -3.97212 6.73917 
617 2 10.3331 -1.225 6.54112 
624 2 12.3077 -0.0441515 6.77656 
623 2 11.3643 -2.41896 8.31951 
692 2 1.57318 0.530269 4.57989 
694 1 1.4207 0.988473 7.44197 
698 2 3.20771 2.059 5.56356 
775 2 0.571967 3.623 7.71713 
688 1 0.364425 2.77008 5.09143 
779 1 3.31035 3.29075 8.08764 
703 2 8.14396 0.433816 7.59677 
695 2 4.76389 0.868608 6.81371 
699 1 6.93754 1.7785 5.42128 
704 1 6.24547 2.42796 8.73852 
717 2 5.295 4.19421 6.4753 
725 2 7.76437 4.34526 6.90942 
751 2 8.62003 4.43676 9.28942 
724 2 9.05771 2.52513 7.64759 
707 1 10.5516 0.219589 8.96303 
726 1 10.084 1.18553 5.46395 
706 2 11.6843 2.19513 7.37743 
702 2 10.7779 3.20599 9.34319 
797 1 2.54423 4.86457 5.5488 
776 2 1.30309 5.98787 8.07945 
794 2 2.43628 7.51539 6.55139 
780 2 3.76097 5.8854 7.91334 
798 1 4.56785 8.70653 8.13052 
800 1 6.35964 5.91675 8.43029 
795 1 5.07507 6.95178 5.65282 
803 2 7.02815 8.39711 6.93238 
730 1 8.39207 6.50644 5.43728 
729 1 10.5981 4.74338 6.92645 
802 1 9.0849 7.13999 8.23244 
731 2 10.8653 7.30843 6.26496 
477 1 1.68857 -5.85707 11.172 
480 2 4.20055 -4.50157 10.5653 
464 1 4.32957 -7.54124 9.97794 
463 2 1.52181 -8.43064 10.2147 
478 2 2.68087 -4.07239 13.1555 
482 2 4.31388 -5.9575 12.3556 
680 1 6.68099 -5.35695 10.9981 
602 2 9.20099 -6.31678 9.98809 
672 2 1.38218 -3.69245 9.61223 
479 2 0.447252 -3.49747 12.4141 
674 1 2.55179 -1.9955 11.4363 
488 1 0.332805 -0.848334 12.8937 
681 2 6.86668 -3.03216 9.23582 
481 1 5.08996 -3.07122 13.0433 
682 2 5.25887 -1.76003 10.7583 
685 2 4.66826 -0.178359 12.3518 
684 1 7.72652 -0.462828 10.3589 
683 2 7.433 -2.74198 11.7182 
679 1 9.51163 -3.48882 10.1163 
765 2 0.762062 0.18907 10.2442 
675 1 3.87817 0.154789 9.40081 
759 2 2.51706 0.861592 11.8712 
761 2 0.234631 1.95966 11.9549 
766 2 1.71319 2.43407 9.97748 
760 2 2.27261 3.32476 12.1665 
829 2 5.57202 6.84433 10.9184 
782 2 4.15266 2.60172 10.7037 
837 2 6.16623 1.5119 11.3611 
785 1 6.67247 4.17287 11.3896 
705 2 8.59987 2.13235 10.1993 
833 1 1.73951 9.10402 8.80321 
778 2 2.27595 4.78628 10.1998 
828 1 1.00676 7.05783 11.2048 
777 2 3.34058 7.00768 9.90261 
784 1 3.86487 5.32049 12.5959 
768 1 4.35395 2.28995 13.4375 
743 2 9.27812 6.1947 0.228228 
633 2 10.5342 0.346819 0.169238 
767 2 2.86364 -0.495987 13.8878 
764 1 1.4738 1.80762 14.2614 
827 1 1.02681 5.10791 13.7148 
437 1 2.94076 10.2469 -9.73551 
420 2 5.55552 9.22283 -9.83943 
430 2 0.691164 9.3783 -5.93615 
865 1 3.24525 10.8411 -6.82384 
433 2 1.79915 12.9404 -5.9044 
869 2 4.07565 12.2483 -4.53118 
879 2 -0.312954 14.3979 -1.72816 
877 1 6.11698 10.5346 -7.16032 
870 2 7.9542 9.11855 -5.58849 
868 2 4.96325 9.88745 -4.89109 
804 2 0.0642604 12.1065 -0.879251 
444 1 1.89436 12.9473 -3.00383 
867 1 2.30692 10.0332 -3.95987 
866 1 4.6828 10.7627 -2.1716 
883 2 2.10797 10.9096 -1.17578 
880 1 2.80066 13.3879 -0.136307 
872 2 9.127 9.62349 -3.23386 
878 1 6.94707 11.6089 -3.94804 
874 2 7.42205 10.457 -1.44932 
881 2 4.58355 13.409 -2.21162 
884 1 5.84402 12.2963 0.19576 
443 2 0.207482 11.6051 -4.77432 
854 2 7.4382 8.4992 -8.39635 
875 1 9.78057 9.40209 -0.403971 
806 1 0.589973 9.44894 0.632359 
809 1 3.6309 10.3362 1.01812 
807 2 1.53762 11.8679 1.85157 
819 2 4.16287 12.7073 2.29785 
808 2 2.23011 9.54123 3.26692 
815 2 4.74388 10.6344 3.61335 
812 2 8.39152 11.5288 0.722258 
737 1 6.87369 9.61683 1.32492 
817 1 7.07963 12.0137 3.26657 
748 2 9.21023 9.86488 2.62018 
816 1 7.09675 9.15242 4.37502 
799 2 3.21065 10.8836 7.12737 
818 1 2.50654 11.91 4.5575 
834 2 0.936543 11.6097 7.37894 
796 2 3.70561 9.30651 5.29151 
790 1 0.850517 9.4654 5.72542 
813 2 5.51428 10.6229 6.03829 
745 2 9.23438 9.17177 6.2794 
882 2 0.204978 13.8781 0.859948 
