ITEM: TIMESTEP
60000
ITEM: NUMBER OF ATOMS
884
ITEM: BOX BOUNDS pp pp pp
-2.7057867000000002e+01 2.7057867000000002e+01
-2.7057867000000002e+01 2.7057867000000002e+01
-2.7057867000000002e+01 2.7057867000000002e+01
ITEM: ATOMS id type x y z 
74 1 -7.04019 -11.1151 -5.02989 
81 2 -4.66159 -11.3648 -6.59279 
91 1 -6.60444 -9.21279 -7.24453 
113 2 -0.093066 -10.172 -8.64303 
58 2 -2.17173 -10.6096 -7.31502 
56 2 -2.6866 -12.938 -6.11987 
52 2 -0.38364 -12.3918 -5.64231 
98 1 -2.26606 -10.7757 -4.5547 
55 2 -3.93986 -9.31193 -8.50877 
78 1 -4.24129 -14.1435 -1.85619 
83 1 -1.85728 -13.3932 -0.201581 
12 2 -9.7526 -10.01 -1.22666 
73 2 -8.86685 -11.5674 -2.89891 
75 1 -6.45792 -12.1703 -2.04616 
80 1 -5.01473 -9.46009 -0.728758 
82 1 -5.00729 -9.5236 -3.63523 
79 2 -7.48962 -9.62104 -2.6542 
77 2 -4.434 -12.6075 -4.26836 
84 2 -1.44932 -11.3675 -1.9838 
76 2 -3.79579 -11.4584 -2.18895 
53 1 -1.63725 -13.5648 -3.37537 
88 2 -2.67169 -9.19701 -2.05213 
144 1 -9.67465 -9.35277 -4.27977 
6 2 -1.20843 -14.3622 2.19557 
16 1 -9.48664 -9.97144 2.28381 
1 1 -6.7124 -11.877 3.36925 
3 2 -4.98739 -10.4027 1.82457 
63 1 -7.37624 -11.2821 0.543421 
2 2 -4.66138 -12.269 0.0418019 
17 2 -6.97831 -9.13179 2.57179 
87 2 -0.831799 -11.9353 2.02999 
7 1 -2.41956 -9.9225 3.60763 
445 2 -1.61941 -12.0691 4.74178 
5 1 -3.57413 -12.7266 2.42561 
85 1 -2.49948 -10.3376 0.523519 
511 2 -0.0794887 -9.54476 1.91485 
15 2 -10.4971 -9.3191 4.69651 
22 1 -5.33296 -9.33524 4.6771 
18 2 -8.08571 -10.1548 4.95542 
8 1 -5.9833 -10.5757 7.0589 
453 1 -3.55223 -10.3238 9.06424 
4 2 -4.38967 -11.7822 5.05259 
448 2 -0.700913 -10.1712 5.86098 
455 2 -1.39986 -11.7626 7.51425 
21 2 -3.0975 -10.3724 6.21967 
457 2 -1.43052 -9.23371 7.6463 
454 2 -0.807734 -10.4404 9.64115 
10 2 -8.35135 -9.04591 7.00695 
93 2 -5.9773 -8.61222 -9.78309 
107 2 -5.9641 -6.49804 -10.6536 
182 1 -7.39154 -4.54512 -9.28009 
111 1 -3.90987 -5.63386 -12.1374 
109 2 -3.71042 -7.6408 -10.4502 
116 2 -1.66655 -8.49567 -9.56151 
112 1 -1.31269 -7.03184 -12.0322 
115 1 -1.84483 -5.58202 -9.18762 
157 2 -9.9306 -3.93212 -9.65266 
179 2 -8.44347 -2.81776 -11.4251 
108 2 -6.13408 -4.10398 -11.9545 
106 1 -4.38141 -4.11957 -9.59143 
184 2 -6.23945 -2.01378 -10.7239 
188 2 -7.7412 -0.0769495 -11.1138 
141 1 -3.70279 -2.42319 -12.1179 
189 2 -4.05697 -1.24491 -9.35623 
127 2 -1.79702 -4.32701 -11.629 
133 2 -1.9677 -2.79445 -9.71753 
132 1 -0.590606 -1.93599 -12.6089 
211 2 -1.96574 -0.642298 -10.759 
288 2 -8.98824 2.3625 -11.0082 
180 2 -10.2707 0.366699 -10.3595 
204 2 -5.39258 0.0913918 -11.6865 
206 2 -6.31401 2.1402 -10.7113 
203 1 -4.68425 2.73892 -12.9026 
291 2 -7.22901 4.42661 -11.624 
185 2 -6.05204 0.0331645 -9.23829 
292 2 -7.44583 3.75006 -9.35851 
207 1 -3.57107 1.48994 -10.1385 
205 2 -3.27451 0.243586 -12.7527 
405 1 -1.04802 1.57927 -12.1923 
208 2 -1.19899 2.307 -9.51932 
202 2 -2.65443 3.76273 -11.4524 
786 2 -0.486574 7.09821 -0.325759 
293 1 -4.92613 4.55755 -10.4348 
289 2 -4.90327 7.31485 -10.8728 
290 1 -7.29153 6.6589 -9.5863 
404 2 -1.73687 5.77137 -12.5919 
423 1 -0.334018 5.04947 -10.1297 
424 2 -2.74423 6.34906 -10.4523 
427 2 -1.28322 8.37998 -11.7854 
428 2 -0.427767 7.80037 -9.63938 
425 2 -2.81699 8.50815 -8.91997 
94 2 -11.1255 -7.58057 -5.73326 
159 1 -9.92622 -5.80252 -7.92399 
156 2 -11.3794 -4.99462 -5.7914 
90 2 -8.96469 -8.06306 -6.76282 
158 1 -9.17464 -6.06536 -4.67929 
92 2 -7.76846 -7.23538 -8.95692 
110 1 -4.73903 -6.78608 -8.20996 
96 1 -4.96532 -6.69673 -5.0278 
162 2 -7.22834 -6.39159 -6.84427 
95 2 -4.23091 -9.04823 -6.10338 
99 1 -1.91078 -7.75863 -6.87991 
114 2 -3.21937 -5.20938 -6.79926 
118 2 -0.786039 -5.00509 -6.68867 
160 2 -10.5501 -3.09563 -7.47099 
264 2 -11.4616 -0.9667 -8.46064 
242 1 -12.7004 -2.48117 -6.00062 
248 1 -9.88342 -0.360459 -6.26759 
167 2 -6.72693 -4.65091 -4.66567 
183 1 -8.76702 -1.61623 -9.05589 
161 1 -8.12256 -3.47586 -6.50989 
181 2 -5.48167 -4.40246 -7.00131 
190 2 -5.83485 -2.21968 -5.70691 
186 2 -5.95825 -2.31487 -8.19601 
187 2 -7.20169 -0.610737 -6.81784 
169 2 -4.23792 -3.81108 -4.86035 
192 1 -3.01861 -2.59194 -7.27574 
196 2 -1.64457 -2.92623 -4.91959 
191 2 -3.68446 -1.421 -4.72798 
210 2 -1.95709 -0.267601 -6.13913 
209 2 -1.68008 -0.143575 -8.47611 
194 1 -0.0837809 -2.04331 -6.95809 
246 2 -12.2297 0.725463 -6.57778 
265 2 -11.2517 1.57953 -8.43135 
266 2 -12.1579 3.18932 -6.83722 
268 2 -9.81728 2.64468 -6.64708 
269 1 -10.0273 3.94921 -8.98667 
267 1 -8.25031 1.23933 -8.54466 
193 1 -4.67639 0.205082 -6.96606 
271 2 -5.34096 2.50738 -8.25936 
270 2 -7.48188 3.17421 -6.92471 
279 2 -5.47931 2.43486 -5.52378 
272 1 -7.86426 1.29473 -4.98154 
273 2 -8.63674 3.91257 -4.82997 
297 2 -2.53578 1.89385 -7.35594 
301 1 -0.4741 3.78173 -7.2456 
302 2 -1.64349 3.47629 -4.7205 
296 2 -2.82991 4.12079 -8.95923 
355 2 -9.80322 6.42627 -8.66879 
339 1 -10.6057 5.46726 -6.18963 
356 1 -8.98527 8.13637 -6.78773 
342 2 -8.15256 5.35292 -7.08036 
294 2 -5.94043 4.92297 -7.7782 
360 1 -6.06774 7.31503 -6.24966 
280 2 -6.13588 4.75729 -5.29137 
299 2 -4.32486 6.58171 -8.52128 
305 1 -1.2694 6.43541 -5.17461 
298 1 -3.61893 4.51652 -6.36389 
300 2 -3.27559 7.81166 -6.51639 
295 2 -1.98444 6.34018 -7.90614 
142 1 -11.723 -6.70463 -3.28143 
145 2 -9.2777 -7.59639 -2.31009 
220 2 -12.2552 -5.23103 -0.995297 
228 1 -9.23587 -5.55997 -0.579961 
143 1 -11.2812 -7.98834 -0.256893 
89 2 -7.28525 -8.28833 -4.85488 
148 2 -5.49814 -6.61656 -0.252146 
149 1 -6.79971 -6.61143 -2.46548 
166 2 -4.84623 -4.77627 -2.78505 
97 2 -2.65186 -8.00506 -4.14016 
171 1 -2.14032 -5.42579 -4.25572 
104 2 -1.57785 -6.86974 -2.05428 
170 2 -4.09575 -7.17089 -2.33715 
100 2 -0.729334 -8.43627 -0.414479 
367 2 -1.66882 7.79296 -2.35982 
173 1 -3.2054 -4.84745 -0.550711 
286 1 -1.74939 4.69862 -2.44217 
351 1 -3.58346 6.75914 -0.769852 
226 2 -14.2377 -0.576068 -0.826768 
225 2 -10.5426 -4.31587 -2.43014 
221 2 -12.636 -4.28833 -3.89581 
163 1 -10.1813 -2.90044 -4.451 
244 2 -12.3132 -0.272578 -4.3789 
222 1 -12.524 -2.3815 -2.31981 
251 1 -8.90656 -2.2798 -1.15251 
247 1 -9.96881 -0.213771 -2.94131 
165 2 -8.15638 -4.25279 -2.92523 
250 2 -7.91487 -1.41543 -4.44092 
168 1 -6.09996 -2.45197 -2.85923 
276 2 -5.72459 -0.132055 -4.38157 
252 2 -6.56624 -1.12554 -0.317248 
174 2 -4.42809 -2.40231 -0.857726 
172 2 -2.99238 -3.00011 -2.80291 
176 2 -0.831567 -3.9567 -2.1206 
177 1 -1.92467 -1.84984 -0.531224 
274 2 -3.96033 -0.551566 -2.49784 
197 1 -1.32751 -0.722266 -3.36809 
324 1 -13.0989 3.58392 -1.95469 
249 1 -11.1296 2.31316 -4.33043 
245 2 -12.575 0.86534 -2.1929 
243 2 -10.7779 2.04326 -1.48471 
256 2 -8.60116 2.30194 -2.6874 
253 2 -7.20775 0.0867248 -2.47277 
259 1 -4.67169 0.633119 -0.388135 
282 2 -4.62179 4.34752 -1.21245 
278 2 -5.57827 1.8321 -3.01064 
255 2 -6.79955 2.05969 -0.894247 
281 1 -7.03988 4.45279 -2.70857 
327 2 -8.76968 3.43223 -0.668376 
277 2 -4.38754 3.96445 -3.69716 
275 1 -3.15753 1.44801 -4.51534 
284 2 -0.872258 2.08082 -2.95469 
283 2 -1.70624 0.892829 -1.00415 
285 2 -3.34263 2.39462 -1.97614 
708 2 -0.430106 2.87379 -0.69022 
382 1 -10.8327 8.18778 -0.70287 
343 1 -10.2038 4.77899 -2.70688 
338 2 -12.2769 4.9166 -4.28467 
325 2 -12.6025 6.37586 -2.39668 
340 1 -10.5257 7.70644 -3.86755 
330 2 -11.3461 5.58499 -0.519901 
365 1 -3.92561 6.75938 -4.00083 
347 1 -6.54086 7.60112 -2.83706 
345 2 -8.3475 6.22521 -4.56565 
346 2 -8.7068 6.77065 -1.69724 
350 2 -6.37599 6.14407 -0.472095 
101 1 -0.0208339 -8.80788 -3.17568 
407 2 -0.103876 4.11397 -12.5154 
224 1 -11.6584 -0.673975 -0.040772 
146 1 -7.88859 -8.36838 -0.135788 
352 1 -5.71333 9.0342 -0.154072 
154 2 -2.94061 -7.47377 -0.00919389 
178 1 -0.0480199 -5.58904 0.0666411 
13 1 -11.6553 -5.58937 1.74037 
14 2 -9.63876 -7.37226 1.83128 
32 2 -9.51551 -5.3643 3.47638 
11 2 -11.677 -8.25892 2.53004 
147 1 -7.25507 -6.22486 1.83945 
20 2 -5.8338 -6.47101 4.24443 
19 1 -8.38758 -7.46292 4.53966 
152 1 -4.59185 -7.91726 2.04061 
827 1 0.0644659 7.27814 12.5015 
583 2 -2.12287 -5.30982 4.39813 
150 1 -4.01577 -5.19925 2.51494 
153 2 -3.4881 -7.3875 4.54262 
151 1 -1.34852 -6.98624 2.40598 
670 2 -0.106101 -0.719702 6.68091 
310 2 -13.7275 -0.707974 1.87702 
29 2 -11.9761 -4.64089 4.37077 
223 2 -13.214 -2.88857 0.205865 
230 2 -10.9246 -3.3841 0.220281 
757 1 -3.55365 5.59229 10.3745 
227 1 -11.8491 -2.51062 2.72232 
231 2 -9.63461 -1.50124 1.72329 
229 1 -9.24367 -2.86933 4.30031 
235 1 -6.8208 -3.9504 3.67184 
233 2 -8.9507 -3.81404 1.7527 
237 2 -7.27012 -1.73364 2.07015 
239 2 -5.75212 -0.466104 3.77951 
258 1 -4.34974 -2.03819 1.85011 
164 1 -6.43478 -3.97006 0.18025 
175 2 -1.92534 -3.88384 1.4058 
236 2 -2.63862 -3.05527 3.89768 
686 2 -3.04546 -0.325748 3.59191 
608 2 -1.17945 -1.64714 2.13847 
311 2 -14.0555 1.47857 3.4738 
309 1 -13.5929 1.67089 0.546158 
315 1 -11.4943 0.757225 2.53754 
328 1 -11.0631 3.25788 0.970898 
314 1 -12.8076 3.77723 3.14814 
313 2 -10.2318 2.95719 3.75532 
254 1 -8.86756 0.667932 0.0277254 
257 2 -6.67535 0.770978 1.63345 
337 1 -6.05249 3.68816 1.10991 
332 2 -8.45812 2.7288 1.91402 
262 2 -6.32315 2.1092 3.76596 
232 1 -8.66983 0.692428 3.60258 
333 1 -7.79551 4.45861 3.76188 
261 2 -2.42553 0.21808 1.29387 
691 2 -0.650867 0.720369 3.03085 
713 2 -0.578343 2.84552 1.85252 
260 2 -4.37451 1.38641 2.45885 
263 1 -3.01069 2.89699 0.7281 
689 2 -2.30285 2.50951 3.53684 
335 1 -4.3968 4.05803 3.69661 
323 2 -13.4909 4.49942 0.595475 
331 2 -11.9079 6.05247 1.657 
377 2 -10.7199 7.99678 2.06302 
326 2 -10.4004 5.31513 3.18379 
373 2 -12.6606 6.44287 3.84101 
329 1 -8.84368 5.50762 0.887528 
348 2 -8.13194 7.91929 0.509876 
334 1 -6.06913 6.61074 2.2648 
378 2 -8.7645 7.13496 3.20208 
386 2 -5.26713 8.55814 4.06185 
773 2 -1.96301 4.91176 2.911 
349 2 -3.78708 5.4621 1.45768 
287 2 -1.48621 5.07003 0.222689 
788 2 -1.88269 7.04202 1.78871 
353 2 -4.0388 8.15278 1.87917 
771 2 -3.42752 6.8484 3.85453 
789 1 -0.407318 7.11067 4.43542 
28 2 -11.0713 -6.92419 4.40528 
25 2 -10.4921 -7.61111 6.60538 
27 2 -10.5019 -5.63976 8.64379 
31 1 -9.82449 -4.94234 6.08729 
688 1 -0.0605657 3.67602 4.54901 
38 2 -8.47106 -6.7347 7.57702 
37 2 -7.17909 -5.41655 6.13319 
471 1 -5.98092 -5.50828 8.63057 
23 2 -6.30791 -7.5796 6.58646 
9 1 -6.41241 -8.41051 9.10658 
585 2 -1.45569 -7.9087 5.39714 
155 1 -4.28612 -5.09393 5.97823 
589 2 -1.69067 -6.15195 7.1948 
24 1 -3.82126 -7.9142 7.20396 
33 2 -11.2337 -3.28773 8.36948 
30 2 -11.8772 -2.74902 5.72801 
41 2 -13.1154 -0.588794 4.64118 
234 2 -10.8443 -0.709381 4.72358 
42 1 -11.8704 -0.587944 7.39738 
36 2 -9.58531 -2.07437 7.04213 
39 1 -8.67414 -3.86148 8.79241 
238 2 -4.73498 -2.5008 4.6362 
35 1 -6.24475 -2.99026 6.92912 
240 2 -7.44242 -1.18266 5.32986 
241 2 -5.4698 -0.390713 7.11116 
43 1 -7.75916 -0.609771 8.32783 
687 2 -0.840413 -1.50468 4.5462 
822 2 -2.42274 7.94489 10.8225 
470 2 -3.43079 -3.70537 8.1016 
588 1 -1.16216 -3.62339 6.24986 
668 2 -1.46128 -1.79596 8.59641 
667 1 -3.09043 -1.3956 6.22701 
318 2 -9.39792 0.425903 6.30766 
312 1 -11.827 1.89922 5.71102 
40 2 -11.2153 3.80488 7.90873 
46 2 -10.058 1.38436 8.51519 
316 1 -9.09931 3.3931 6.33644 
321 2 -7.0964 1.17931 5.86948 
317 2 -6.16362 3.43443 5.87031 
319 1 -7.1337 2.22269 8.46762 
753 2 -4.55552 1.31805 8.51187 
669 1 -2.04236 0.932261 8.06298 
690 2 -1.35036 0.906083 5.3044 
671 1 -4.36274 1.38832 5.53629 
769 2 -1.99291 2.89362 6.31299 
755 1 -4.13423 3.74677 7.77561 
758 2 -1.59713 3.88198 8.90445 
374 2 -11.1177 4.92053 5.56212 
380 1 -10.4808 7.56537 5.20282 
375 2 -9.82228 5.81668 7.93414 
752 1 -6.87906 5.26134 8.1261 
393 1 -8.53378 8.22392 7.49683 
320 2 -8.40907 5.98313 5.7896 
336 1 -5.67608 6.23253 5.54459 
381 2 -7.3837 8.09388 5.00082 
824 2 -5.81474 8.52696 7.27146 
770 2 -4.17788 6.52411 7.80698 
787 2 -0.793831 8.94561 6.53346 
772 1 -2.44578 5.40212 5.82635 
823 1 -3.3416 8.51307 6.15099 
826 1 -1.64181 6.94909 8.13215 
26 2 -8.50707 -6.20984 9.91758 
468 2 -5.57534 -6.37702 11.1473 
467 2 -4.91009 -4.67399 12.9676 
460 2 -3.37419 -5.96552 9.11263 
459 1 -0.925151 -4.66704 9.3587 
458 1 -1.2749 -7.82349 9.77565 
456 2 -3.90169 -7.90593 10.2382 
472 1 -2.61022 -5.71767 11.8197 
45 1 -10.2019 -1.21737 9.92423 
34 1 -7.25186 -4.31589 11.4728 
469 2 -6.35939 -2.63023 9.51313 
47 2 -7.67467 -1.38638 11.1451 
483 1 -5.30626 -2.06978 12.3728 
473 2 -4.55635 -4.07207 10.5068 
476 2 -2.80684 -3.17768 13.1439 
479 2 -1.12271 -1.5718 12.7988 
474 2 -2.2315 -2.85044 10.9008 
673 2 -1.34487 -0.293311 10.537 
666 1 -3.94163 -1.18058 9.49165 
475 2 -3.26876 -0.724441 11.9005 
322 1 -9.25963 3.85952 9.73774 
485 1 -5.85131 0.685608 11.1188 
44 2 -8.41857 0.982553 10.4816 
484 2 -7.3565 3.11723 11.5345 
754 2 -5.36289 3.19111 10.0662 
487 1 -5.00456 3.87874 12.7563 
486 2 -3.91094 1.25143 13.3288 
488 1 -1.16611 1.31877 13.0484 
756 1 -3.01682 2.14971 10.6874 
761 2 -1.17168 4.03055 11.355 
765 2 -0.406881 1.92193 10.1151 
763 2 -2.59366 3.50784 13.2068 
820 2 -6.48497 5.35274 10.8735 
376 2 -8.37356 6.62843 9.71915 
821 2 -5.8136 7.29784 9.61209 
774 2 -0.69717 6.00215 10.1882 
762 2 -2.26265 5.80697 12.72 
825 2 -3.85073 8.66619 9.00971 
422 2 -3.3995 9.36909 -11.0052 
429 2 -1.21085 10.1374 -9.84858 
357 1 -5.40748 9.04774 -8.70681 
359 2 -6.83401 9.92602 -6.52758 
364 1 -3.83341 10.4493 -6.59664 
438 2 -3.38707 11.1832 -9.15469 
440 2 -1.38894 11.7237 -7.62758 
442 1 -0.935713 11.8653 -4.97297 
369 2 -2.51385 9.23746 -4.35914 
391 1 -2.49982 14.2046 0.00245121 
384 2 -10.2236 10.088 -2.29577 
341 1 -8.26609 9.4119 -4.35289 
361 2 -5.24826 9.30349 -4.57246 
363 1 -6.60084 11.855 -4.66831 
358 2 -6.10761 10.4813 -2.51856 
390 2 -8.37162 11.6936 -2.35517 
362 2 -6.1284 12.9279 -2.17643 
372 1 -3.91314 11.7227 -0.886753 
371 1 -3.86873 11.7072 -3.81398 
366 2 -1.76505 12.9917 -2.66621 
370 2 -1.71745 10.3858 -2.38155 
810 2 -1.0399 11.7646 -0.541702 
368 2 -3.80151 9.03855 -2.16009 
344 2 -8.08668 9.32658 -1.40575 
434 1 -0.8597 9.133 -6.97946 
385 2 -9.26433 10.0796 0.623337 
379 2 -10.0995 9.86188 3.24114 
389 2 -4.78065 13.1205 1.32724 
388 1 -4.72208 10.6909 2.2708 
394 1 -8.15452 11.9059 3.09457 
395 2 -5.68493 12.7878 3.89513 
387 1 -7.37758 9.41588 2.6037 
383 1 -7.02866 11.6669 0.246529 
805 2 -0.104159 10.9814 1.59149 
835 2 -2.4071 12.0381 1.54829 
354 1 -2.27468 9.41142 0.202508 
832 2 -1.05849 12.0965 3.5959 
792 1 -2.14578 9.51319 3.3098 
830 2 -3.86909 11.0924 4.78879 
397 2 -3.26658 13.2084 3.41656 
836 1 -0.0544675 13.7314 1.63004 
396 1 -6.28687 10.6525 5.54384 
392 2 -8.95362 10.0196 5.428 
839 2 -1.79118 10.0502 8.50085 
831 1 -1.63953 11.417 6.19701 
838 2 -3.96187 10.625 7.60166 
67 2 5.13426 -9.38394 -9.07391 
50 2 1.53717 -11.6819 -7.75017 
49 2 2.09586 -12.053 -5.33848 
68 1 3.86393 -10.558 -6.56073 
57 1 0.430847 -9.83123 -5.95584 
65 2 2.54861 -9.3824 -8.56517 
61 2 4.63995 -11.7466 -4.3229 
51 2 6.44245 -10.9641 -7.61445 
489 2 6.35744 -10.2684 -5.14619 
490 2 8.48377 -10.4179 -6.32838 
48 2 1.08422 -13.856 -3.95386 
60 2 2.50608 -9.54828 -4.26241 
59 2 0.207601 -11.4638 -3.56843 
62 1 2.58904 -11.9139 -2.66174 
54 2 0.57598 -13.5547 -1.57438 
491 2 2.89236 -12.8928 -0.127023 
531 2 3.31931 -10.4107 -0.441161 
86 1 0.556116 -10.8908 -0.447823 
499 1 8.66532 -10.0695 -0.517429 
497 1 4.8161 -9.42827 -3.00278 
496 2 7.09565 -11.1914 -2.54504 
493 2 7.06296 -12.1358 -0.156675 
498 2 5.93824 -10.1679 -0.592872 
495 2 5.0684 -12.0906 -1.59929 
504 1 8.92827 -9.67963 -3.633 
505 2 10.9241 -9.48343 -1.90474 
527 2 2.14654 -8.98652 -1.97066 
446 1 0.726642 -13.4303 3.86102 
512 2 0.85274 -13.5499 1.06478 
492 2 3.13586 -13.4093 2.27893 
515 2 0.463807 -10.8377 3.95069 
514 1 2.45398 -10.9588 2.05944 
533 2 4.56013 -9.27484 1.4174 
519 2 7.22761 -10.2068 4.47357 
520 2 5.05716 -10.851 3.31788 
535 2 6.92662 -10.2517 1.70958 
494 2 4.8624 -11.7833 1.00056 
451 1 4.96365 -10.2529 9.12245 
461 1 1.68589 -9.04965 10.245 
518 2 3.02383 -11.7953 4.53653 
513 2 1.87639 -10.0206 5.76827 
447 2 0.892181 -12.2062 6.19181 
450 2 2.9571 -11.433 7.55156 
449 2 0.753314 -10.4464 7.9454 
544 2 9.78749 -9.15884 5.24229 
521 1 4.859 -10.106 5.90311 
525 1 7.54061 -9.648 7.31061 
500 2 10.9522 -9.15865 0.574314 
398 1 2.12153 -2.39653 -13.3892 
409 2 0.614873 -0.0279712 -13.782 
70 1 3.44652 -7.58965 -10.8603 
64 1 0.685193 -8.95931 -11.019 
69 2 1.39642 -6.94638 -12.7677 
129 2 0.700397 -5.87352 -10.5427 
134 2 2.63557 -5.09512 -9.17001 
131 1 2.95537 -5.01184 -11.8991 
126 2 0.353615 -4.66711 -12.7314 
71 1 6.63833 -7.07405 -10.1731 
128 2 5.44629 -5.97151 -12.1363 
72 2 7.4621 -4.72635 -11.3436 
130 2 0.972464 -3.36128 -10.8744 
139 2 3.66641 -2.25298 -11.1597 
195 2 0.522431 -4.14091 -8.56568 
399 2 4.27371 -0.529942 -13.1397 
213 2 0.0863731 -1.41658 -9.74146 
137 1 5.15918 -4.03524 -10.0951 
840 2 7.84891 -2.6675 -10.2751 
402 2 6.03688 -1.62822 -11.4093 
400 2 4.95112 -3.42119 -12.8116 
842 2 10.0794 -2.08656 -10.2164 
401 2 4.39251 -0.0317178 -10.4504 
413 2 3.24797 2.19425 -9.75213 
412 2 3.87528 1.81632 -12.0662 
411 1 1.86228 -0.0577953 -11.3841 
406 2 1.64237 2.34198 -13.0138 
408 2 0.999955 2.62259 -10.6687 
416 1 6.00602 1.84735 -9.14127 
403 2 6.22644 0.894961 -11.9793 
843 1 8.43057 0.0599535 -10.443 
419 2 7.95975 2.62258 -11.3142 
414 2 5.45841 3.58695 -11.3442 
853 2 9.79972 4.04562 -10.0493 
410 1 2.82465 4.50231 -11.391 
421 2 3.13966 7.19707 -11.9299 
431 1 2.61521 6.59235 -9.32913 
426 1 0.681629 6.75004 -12.2801 
417 2 5.02106 6.2001 -10.8112 
420 2 7.15083 7.47448 -10.2635 
848 1 7.26158 4.85984 -9.51751 
862 2 13.5171 4.4023 -1.20949 
117 1 0.790889 -7.22854 -8.32223 
123 1 4.18995 -7.04471 -7.98341 
103 2 2.39323 -8.1061 -6.19037 
120 1 1.99179 -5.41304 -6.38991 
102 2 0.0868623 -6.9698 -5.30492 
508 2 8.84602 -7.25666 -8.32329 
66 2 4.62846 -8.54332 -5.45684 
135 2 6.33256 -5.70175 -7.86828 
502 1 6.81921 -8.40838 -7.20057 
503 2 6.92719 -7.91765 -4.58898 
119 1 5.50285 -5.7542 -5.35756 
565 2 8.15974 -5.9789 -6.37455 
501 2 9.31919 -8.0869 -5.58927 
509 1 10.9628 -5.84408 -6.72848 
125 1 2.71167 -2.09914 -8.76507 
138 2 4.23833 -3.89053 -7.4848 
124 2 3.57542 -4.14419 -4.79693 
201 2 2.19412 -2.76287 -6.08058 
198 2 0.988011 -1.23727 -4.47172 
140 1 4.56097 -1.70007 -5.89039 
121 1 0.730742 -3.86555 -4.19203 
216 2 2.16782 -0.365668 -6.46827 
510 1 8.63932 -4.53736 -8.73423 
136 1 6.12364 -1.30739 -8.55084 
567 2 8.70801 -1.8127 -8.04433 
566 2 6.66186 -3.56492 -6.94659 
569 2 7.30697 -1.35384 -5.99492 
568 1 9.02546 -3.53349 -5.62037 
570 1 11.4173 -2.95201 -7.95584 
575 2 12.1135 -2.98486 -5.44014 
845 2 12.8544 -0.939225 -6.80208 
573 1 10.1094 -0.593645 -5.87973 
212 1 0.974666 0.842263 -8.53826 
215 2 3.82859 0.141494 -8.10661 
217 1 3.32791 2.42911 -6.69723 
418 2 1.7866 3.88269 -8.70958 
218 2 3.34927 0.448183 -4.40332 
304 2 0.643731 4.54287 -4.80501 
214 1 0.139539 1.3883 -5.50508 
851 2 8.85435 2.5646 -8.76433 
645 2 5.5565 0.798384 -6.4966 
648 2 7.54352 0.834155 -5.1236 
841 2 8.06557 0.621352 -7.5188 
849 1 6.91783 3.20904 -6.83213 
844 1 10.781 0.218819 -8.68047 
850 2 9.61813 2.29609 -6.26541 
846 2 11.9253 1.54355 -6.03528 
857 2 11.3267 2.82565 -8.10339 
855 1 12.1279 4.33978 -5.99381 
432 2 3.79553 6.9583 -6.62691 
415 1 4.49887 4.52965 -8.66576 
303 2 2.31775 5.05331 -6.70152 
306 2 1.45319 6.928 -5.29718 
435 2 0.445334 6.4765 -7.57177 
430 2 1.63766 8.38606 -7.43289 
646 2 4.7405 4.61441 -5.93025 
847 2 5.34169 7.37972 -8.6884 
854 2 8.83431 7.33416 -8.41213 
864 1 6.6963 6.43837 -6.76003 
870 2 8.81019 7.97076 -6.06536 
860 2 8.55368 5.36011 -4.96182 
868 2 5.69439 8.91553 -5.82083 
863 2 4.70361 7.28662 -4.12012 
852 1 9.5498 5.00109 -7.31488 
856 2 10.527 6.41192 -5.31292 
122 1 3.04578 -6.86116 -3.74807 
875 1 9.89607 8.85334 -0.697503 
105 2 0.583985 -6.18625 -2.83134 
529 2 2.32895 -6.58021 -1.17282 
532 2 4.14021 -8.09492 -0.81426 
548 2 4.05939 -4.56489 -2.44516 
551 1 8.46968 -5.88868 -3.64998 
550 2 5.76388 -6.36218 -2.66627 
547 2 7.14574 -8.23365 -2.10376 
552 2 4.69481 -5.91966 -0.442824 
558 2 7.99976 -5.84782 -1.11767 
572 2 11.0703 -4.80249 -4.28454 
506 1 11.0819 -7.39296 -3.76784 
507 2 12.8436 -5.37939 -2.65567 
536 2 9.56474 -7.64506 -1.4431 
560 1 12.2223 -7.05158 -0.762875 
559 1 10.4943 -4.70944 -1.59646 
630 1 4.27826 -3.07503 0.0283203 
626 1 3.26017 -1.99302 -3.03996 
199 2 0.609277 -2.00378 -2.08423 
625 2 1.80533 -4.20744 -1.65219 
627 2 2.57935 -0.931722 -0.862151 
553 1 6.30434 -3.48353 -4.01004 
557 2 8.24926 -3.22956 -1.9579 
549 2 6.24073 -4.22421 -1.27217 
555 2 5.74553 -1.9439 -1.83443 
636 1 7.5238 -0.777041 -0.460454 
571 1 8.18563 -1.0755 -3.46307 
644 2 5.66264 -0.231252 -3.8045 
576 2 10.2915 -2.52044 -3.57735 
577 2 12.5684 -2.98354 -3.02829 
563 1 13.1954 -3.69855 -0.503927 
574 1 10.5819 -1.51508 -1.15453 
578 1 12.4763 -0.30288 -3.90293 
579 2 13.2972 -1.13758 -1.53927 
219 2 2.25601 2.74561 -4.49465 
652 2 3.38643 2.60466 -2.431 
200 1 1.3269 0.689423 -2.53676 
709 2 1.02753 3.52232 -2.55049 
631 2 2.61492 1.65266 -0.22218 
647 2 8.11004 3.14648 -4.47689 
649 1 5.32372 2.5076 -4.11043 
629 1 4.84186 0.584293 -1.33959 
653 2 7.26143 1.43406 -2.48597 
650 2 5.32136 3.49551 -1.31053 
658 1 7.97553 4.02124 -2.06298 
635 2 7.05003 2.30636 -0.0141741 
859 2 10.4345 4.03519 -3.89762 
656 2 9.46467 1.36513 -0.700166 
657 1 10.0681 1.32759 -3.62524 
861 1 12.9802 2.65356 -3.41081 
655 2 11.7959 0.77979 -1.42697 
659 1 10.947 3.56168 -1.275 
664 1 14.1886 1.46181 -0.83869 
733 1 3.20469 4.85951 -0.70159 
307 2 0.65501 6.32824 -3.02488 
716 2 0.656589 5.11755 -0.81783 
735 1 3.17335 5.13974 -3.86693 
734 1 2.88448 7.68142 -1.98968 
744 2 7.59034 7.24624 -1.12552 
871 1 7.31621 7.71709 -3.86554 
736 2 5.41412 5.85226 -2.09355 
651 2 6.24703 5.06333 -4.30063 
738 2 5.6628 8.28613 -1.93173 
876 2 11.7429 6.46593 -0.795533 
873 2 11.7819 8.35971 -2.50785 
742 1 9.63366 6.4478 -2.7562 
858 1 12.4318 5.80489 -3.3937 
741 2 4.83018 7.21855 0.00523407 
743 2 9.39298 5.82585 -0.0227419 
582 1 1.04616 -8.19493 3.94892 
605 2 1.39825 -5.96789 2.2935 
530 1 1.81381 -8.11523 0.821913 
534 1 4.11712 -6.67877 2.19727 
528 2 2.59558 -5.00712 0.544543 
516 2 3.5782 -8.94081 3.66653 
540 1 7.62126 -6.22967 3.10745 
538 2 6.19613 -8.49884 3.15672 
541 2 6.07413 -4.74948 1.33958 
539 1 6.7771 -7.62792 0.481132 
609 2 5.33847 -4.52635 3.68036 
543 1 11.8543 -7.21705 2.63918 
562 2 11.307 -5.20018 1.10722 
554 2 9.4456 -6.74522 0.907044 
546 1 10.2618 -4.40763 3.31752 
607 1 1.54554 -1.16344 3.31695 
628 1 3.49377 -0.257025 1.47088 
606 2 3.09843 -3.613 2.53501 
604 1 0.98529 -2.77197 0.536653 
603 1 0.149445 -3.89973 3.33924 
614 1 6.01617 -2.08406 2.11909 
632 1 7.10411 0.0328761 3.88926 
611 2 7.62734 -3.56089 3.48155 
556 1 8.52526 -3.80248 0.677375 
639 2 8.91419 -1.57928 2.1523 
561 2 11.4478 -1.71159 3.21452 
564 1 13.1535 -3.70417 2.66481 
581 1 13.2263 -0.903796 1.12127 
580 2 11.0184 -2.72175 1.00601 
641 1 14.0075 -0.923377 4.22776 
710 1 0.442252 0.174684 0.457618 
711 2 1.63411 1.59811 2.56828 
714 2 2.38832 3.61505 3.11993 
715 2 1.62677 3.44577 0.948692 
696 1 4.01543 1.03847 4.11367 
720 2 4.55659 3.7855 3.95924 
718 1 4.52109 2.91865 1.45471 
721 1 7.19611 2.94516 2.85647 
634 2 5.91665 0.600241 1.45446 
637 2 8.45349 1.06614 1.62312 
654 2 9.00865 3.54444 0.586073 
640 2 9.75686 0.21298 3.71209 
633 2 10.5422 -0.0242574 1.0753 
723 1 10.2896 2.74734 2.9188 
643 2 13.0999 3.09405 3.37112 
662 2 12.1478 0.812078 2.95445 
661 2 11.9362 1.85599 0.767707 
663 2 14.4619 1.36989 2.09384 
660 2 13.9575 3.37954 0.997294 
712 1 0.628909 5.61027 2.05174 
811 2 2.12471 7.52901 0.6612 
719 1 3.93318 5.85109 2.15404 
793 2 2.11943 7.8301 3.15118 
814 2 4.28248 8.655 2.03234 
791 2 0.0634372 8.5848 1.75847 
452 2 2.96227 -9.01388 7.94399 
722 2 6.43405 5.29768 3.77017 
740 1 6.63269 5.18166 0.57055 
739 2 6.29681 7.16693 2.22181 
750 2 8.49415 7.60876 1.24134 
746 2 8.85961 5.20154 2.36257 
732 2 10.5941 5.99754 3.7876 
665 1 11.8675 4.71488 1.25729 
749 2 10.8941 7.12472 1.28232 
747 2 9.97466 8.35153 2.95265 
829 2 4.91092 8.84528 10.0919 
594 1 2.69611 -5.16691 4.74055 
584 2 0.1483 -5.9254 5.12764 
596 2 3.11172 -7.76189 5.69167 
590 2 1.09489 -4.88582 7.2205 
587 1 0.878217 -7.74969 7.23586 
591 1 3.62311 -5.91025 7.88514 
522 1 5.44998 -6.78512 5.22779 
523 2 7.72874 -7.96985 5.12808 
615 1 7.804 -4.90453 5.91426 
517 2 5.16608 -8.12276 7.60668 
524 2 7.14807 -6.9373 7.43666 
600 2 6.16209 -4.78045 8.05903 
542 2 9.80528 -6.92651 4.65272 
545 2 12.4566 -5.53095 4.67892 
620 1 10.7146 -4.88082 6.57916 
526 2 9.47122 -7.43135 6.97585 
610 1 4.16153 -2.03695 4.63882 
592 2 3.01958 -3.28975 7.28969 
586 2 1.35087 -2.59987 5.63348 
676 2 0.777638 -2.40434 8.10245 
693 1 2.58895 -0.237949 6.67004 
677 2 0.676997 0.057418 8.89105 
597 2 4.99989 -4.26213 6.09287 
612 2 6.63585 -2.30278 5.32899 
619 2 7.51416 -0.329511 6.5587 
613 1 5.63661 -2.23772 7.71131 
701 2 7.81585 -0.455131 9.19803 
616 1 8.83023 -2.91449 8.28309 
621 2 12.0473 -2.89392 5.12258 
618 1 9.31334 -2.13934 5.23947 
638 2 11.4434 -0.527275 5.40246 
622 2 11.3323 -2.12099 7.33956 
617 2 9.58535 -0.377942 7.53136 
781 2 7.37285 8.12487 9.86662 
692 2 1.0523 1.03723 4.79997 
694 1 0.70492 2.19824 7.41059 
698 2 2.52514 2.77089 5.35064 
779 1 3.01289 4.46827 7.56796 
695 2 4.06811 2.0301 7.23652 
697 2 5.36772 0.247066 6.3397 
700 2 5.0853 0.328891 8.73194 
703 2 7.11308 1.59675 8.06071 
699 1 6.29397 2.80053 5.78294 
704 1 5.65361 4.06656 8.68477 
724 2 8.39603 3.72402 7.82929 
727 2 8.69847 4.31617 4.59159 
624 2 11.838 0.756135 7.64612 
642 2 12.1656 1.7249 5.31863 
728 2 11.4549 4.08902 4.88567 
726 1 9.48243 1.88482 5.97244 
706 2 11.4179 3.22182 7.43145 
797 1 2.39539 5.59718 4.83646 
776 2 1.01633 7.53563 7.18279 
794 2 2.40211 8.56114 5.41155 
780 2 3.49818 7.15842 7.01122 
778 2 1.47853 6.40882 9.27407 
775 2 0.266637 5.02915 7.16396 
717 2 5.21684 5.24722 5.85511 
725 2 7.44556 5.3614 6.4291 
800 1 6.11629 7.33415 7.66247 
795 1 4.97488 7.68627 4.60442 
730 1 8.06206 7.0825 4.55525 
802 1 8.93116 8.20634 7.56256 
729 1 10.1457 5.51554 6.76685 
731 2 10.5564 7.81441 5.29991 
462 2 1.4553 -6.49865 9.42731 
464 1 2.94409 -5.65838 11.671 
463 2 0.444061 -6.78431 11.5665 
465 2 4.0884 -7.71002 9.90231 
598 2 6.53901 -7.86046 9.62338 
601 1 8.46934 -5.58143 9.44247 
466 2 5.59097 -5.70751 10.3167 
602 2 7.40258 -4.77118 12.0593 
751 2 8.11266 6.0045 8.88386 
477 1 0.153868 -4.10205 12.3817 
678 1 3.00264 -1.3734 9.45211 
595 2 1.8677 -4.04565 9.77293 
480 2 2.31399 -2.53389 11.7372 
672 2 0.179214 -2.14465 10.4312 
674 1 1.35814 0.106493 11.6166 
593 2 4.30168 -3.69394 9.55995 
680 1 4.99633 -3.31776 12.1933 
599 2 6.61257 -3.57355 9.93304 
681 2 5.78142 -1.37041 10.3137 
683 2 6.3278 -0.783583 12.6883 
679 1 8.2644 -2.11559 11.3355 
623 2 10.3276 -0.871614 9.77991 
682 2 4.22443 -0.117168 11.4237 
675 1 3.08196 2.07558 9.60722 
759 2 1.33974 2.88044 11.842 
766 2 0.974958 3.87705 9.53193 
782 2 3.11416 4.51539 10.4294 
537 1 9.02272 -8.97137 2.59071 
685 2 3.56079 1.91144 12.4029 
684 1 6.5682 1.34981 10.8043 
837 2 5.19665 3.42038 11.3744 
705 2 7.88677 3.7985 10.2628 
707 1 9.64223 1.82043 9.30914 
702 2 10.2038 4.62896 9.4312 
777 2 2.76328 8.5806 9.04604 
760 2 1.11983 5.15847 11.5306 
783 2 4.04863 6.40473 9.13705 
784 1 2.93498 7.21786 11.5597 
828 1 0.0993165 8.74007 9.899 
785 1 5.91854 6.03055 10.9617 
768 1 3.19011 4.55074 13.1303 
478 2 1.01999 -1.74307 13.9344 
482 2 2.55854 -3.73607 13.6845 
767 2 1.56989 1.60818 13.923 
481 1 3.5261 -0.971995 13.7401 
764 1 -0.0117457 4.28421 13.8099 
436 1 1.60223 9.29213 -10.5548 
865 1 3.85795 9.52877 -8.18454 
433 2 2.76766 11.9322 -7.62874 
443 2 1.08004 10.7472 -6.17552 
867 1 2.99571 9.06925 -5.05283 
439 2 0.879105 10.7508 -8.62857 
441 2 0.803958 13.1241 -6.82584 
444 1 2.66605 12.1988 -4.83706 
869 2 4.87945 11.1785 -6.11441 
877 1 7.06928 9.38288 -7.99385 
878 1 7.53013 10.6029 -5.08681 
308 1 0.158131 9.15687 -3.93977 
883 2 2.42938 10.323 -2.83795 
880 1 2.91278 13.0938 -1.90218 
804 2 0.514699 11.7362 -2.53654 
806 1 0.663816 9.5694 -0.770174 
809 1 3.81826 10.297 -0.39638 
884 1 5.99228 12.4137 -1.25722 
881 2 5.21986 12.7579 -3.94819 
866 1 5.05116 10.233 -3.46214 
874 2 7.58499 10.0099 -2.14121 
812 2 8.49146 11.4968 -0.525614 
882 2 0.286118 13.9004 -1.19298 
879 2 0.835687 13.8313 -3.55224 
437 1 4.96841 8.98512 -10.7897 
872 2 9.5218 9.2654 -3.33699 
807 2 1.68797 12.2261 0.311915 
819 2 4.16742 12.7677 0.672734 
808 2 2.12872 9.93441 1.7213 
818 1 2.47121 12.4048 2.91605 
796 2 3.50173 10.0583 3.90849 
790 1 0.675887 10.1525 4.27039 
815 2 4.68622 11.0252 2.24722 
817 1 7.03823 12.1636 1.85026 
816 1 6.8691 9.58161 3.34655 
737 1 6.6279 9.51377 0.387346 
748 2 9.04579 10.1924 1.68232 
798 1 4.36744 10.1022 7.07619 
799 2 2.93968 11.6814 5.57423 
834 2 0.713426 12.5989 5.23682 
833 1 1.11363 10.4859 7.62016 
803 2 6.95491 9.54175 5.99521 
745 2 9.01836 9.69258 4.92102 
801 2 6.87545 9.90145 8.36881 
813 2 5.43279 11.4317 4.71795 
