ITEM: TIMESTEP
0
ITEM: NUMBER OF ATOMS
884
ITEM: BOX BOUNDS pp pp pp
-2.7057867000000002e+01 2.7057867000000002e+01
-2.7057867000000002e+01 2.7057867000000002e+01
-2.7057867000000002e+01 2.7057867000000002e+01
ITEM: ATOMS id type x y z 
1 1 -5.09925 -11.4901 -5.7509 
63 1 -7.41891 -9.40201 -5.83729 
6 2 -0.609356 -10.3689 -8.70562 
3 2 -3.85641 -9.14047 -5.86122 
4 2 -2.34773 -11.8798 -6.19468 
5 1 -3.21146 -10.2542 -8.21104 
7 1 -1.0321 -9.31747 -5.94313 
21 2 -0.335536 -11.9577 -4.84981 
8 1 -2.24237 -13.5445 -3.66549 
9 1 -1.13465 -13.8674 -0.604436 
10 2 -4.12924 -13.863 -1.29074 
11 2 -9.2145 -11.084 -1.34867 
12 2 -9.50798 -9.33399 -4.14294 
14 2 -7.48878 -9.39262 -1.09769 
15 2 -6.63928 -13.0677 -1.54909 
16 1 -7.27308 -10.9951 -3.24161 
17 2 -5.26703 -9.27133 -3.82333 
18 2 -4.8315 -12.4596 -3.18987 
19 1 -5.03174 -10.9337 -0.858904 
24 1 -0.16153 -11.2959 -2.11962 
20 2 -2.70746 -9.27223 -1.45101 
22 1 -2.8407 -10.6387 -3.81684 
23 2 -2.73441 -11.938 -1.53736 
26 2 -1.58747 -13.9047 2.21378 
27 2 -3.98023 -13.6153 3.04855 
13 1 -9.27174 -9.5741 1.04788 
25 2 -5.64098 -13.3845 0.6847 
28 2 -7.43022 -11.5992 0.333147 
29 2 -7.92213 -11.0294 2.78213 
31 1 -5.31705 -11.3154 2.39177 
32 2 -6.45921 -9.34693 1.00296 
35 1 -0.73538 -9.15552 2.75896 
36 2 -4.20272 -9.56468 4.25462 
37 2 -1.76653 -10.8616 0.33295 
38 2 -3.30742 -12.6977 0.793933 
39 1 -2.37752 -11.3718 3.02775 
30 2 -6.47773 -10.5461 4.7188 
41 2 -7.97516 -9.66994 6.50855 
42 1 -5.27003 -10.2335 7.17386 
33 2 -4.22907 -11.856 5.08232 
34 1 -1.91672 -13.3651 5.03922 
43 1 -1.77662 -9.93973 5.8047 
44 2 -0.889197 -10.4102 8.60358 
45 1 -2.86658 -12.0338 7.588 
46 2 -3.06924 -9.3273 8.38069 
47 2 -0.207581 -12.1732 6.77649 
48 2 -2.83206 -4.48704 -13.5835 
51 2 -0.693396 1.55986 -13.9 
77 2 -6.85209 -6.50162 -10.628 
78 1 -5.03192 -8.50386 -10.2085 
81 2 -8.44997 -4.83579 -9.52625 
53 1 -4.45582 -6.2586 -12.1457 
54 2 -1.66505 -6.03863 -11.8817 
83 1 -2.08903 -8.29552 -10.3298 
84 2 -3.38386 -5.89073 -9.68963 
86 1 -0.692519 -5.43522 -9.39565 
93 2 -11.0718 -0.231939 -9.09852 
52 2 -5.19578 -3.5702 -12.5989 
55 2 -8.75366 -0.744533 -9.73628 
56 2 -7.31265 -2.49483 -11.1464 
57 1 -4.71641 -1.47314 -10.9185 
58 2 -7.08069 -0.0419536 -11.3842 
98 1 -5.64303 -4.26096 -9.86883 
59 2 -3.18823 -3.98841 -11.291 
60 2 -1.77425 -1.29804 -10.816 
61 2 -0.659612 -0.827574 -13.0699 
62 1 -0.653955 -3.46241 -12.0153 
527 2 -0.184999 -2.50226 -9.33921 
49 2 -2.94839 -2.0442 -12.9359 
64 1 -6.93904 2.7858 -12.1507 
112 1 -8.43797 4.47558 -9.97975 
113 2 -5.1632 1.35467 -10.4803 
116 2 -7.6548 1.69095 -9.79417 
117 1 -5.43455 3.85713 -9.55669 
50 2 -5.313 0.650791 -12.8898 
103 2 -3.26038 0.309757 -9.52582 
65 2 -4.27303 3.01097 -12.1059 
66 2 -0.284536 1.32953 -11.4245 
67 2 -1.7148 3.34477 -12.411 
68 1 -2.77153 0.76838 -12.2423 
123 1 -2.47309 2.95846 -9.74911 
69 2 -6.062 5.4688 -11.5727 
128 2 -4.61219 7.69182 -11.1104 
131 1 -6.77261 7.06132 -9.42254 
70 1 -3.2747 5.44145 -11.7468 
71 1 -0.1869 6.33882 -12.6465 
134 2 -4.11259 6.24366 -9.25119 
135 2 -0.70724 4.8393 -10.6394 
137 1 -1.74648 7.45516 -10.0309 
72 2 -0.192712 8.87702 -11.722 
73 2 -9.90243 -8.35106 -6.42691 
74 1 -10.2584 -5.83325 -7.49751 
75 1 -7.90671 -7.61941 -8.38283 
76 2 -5.38091 -6.6098 -8.43805 
79 2 -8.26486 -6.71667 -5.68386 
80 1 -5.50247 -6.9352 -5.6305 
82 1 -7.16045 -4.81151 -7.15366 
2 2 -5.50207 -8.96669 -7.61361 
85 1 -2.71913 -7.13816 -7.35249 
87 2 -0.218277 -8.06225 -8.36303 
88 2 -4.22495 -4.83005 -7.32235 
154 2 -3.18754 -5.24108 -5.14978 
100 2 -1.48606 -4.52418 -6.86309 
89 2 -9.36019 -4.16852 -5.58627 
90 2 -11.7188 -3.92807 -5.93463 
91 1 -10.0531 -2.76516 -7.96422 
92 2 -11.955 -1.03671 -6.88417 
162 2 -10.3372 -1.79994 -5.19077 
95 2 -7.50629 -2.60798 -8.71848 
96 1 -7.54146 -2.08539 -5.85493 
97 2 -5.28915 -2.65301 -7.49027 
99 1 -6.24921 -0.289473 -8.50461 
170 2 -5.28678 -3.91359 -5.21032 
171 1 -4.61731 -1.03033 -5.12711 
101 1 -2.82669 -3.09486 -8.9135 
102 2 -3.53609 -0.925506 -7.58187 
104 2 -3.03716 -2.91839 -5.97216 
105 2 -1.12599 -1.9171 -7.24217 
178 1 -0.51259 -2.5997 -4.81381 
106 1 -9.95653 2.89567 -5.82767 
107 2 -11.7883 1.58146 -7.52344 
108 2 -12.5953 3.46462 -6.02893 
109 2 -9.78432 2.25392 -8.80351 
110 1 -9.30071 0.160061 -7.15385 
111 1 -11.3006 4.40639 -8.2742 
182 1 -11.9123 0.80929 -4.85893 
114 2 -6.82032 0.526724 -5.95095 
115 1 -7.30484 2.71427 -7.36364 
118 2 -5.07594 1.57418 -4.65267 
195 2 -5.55304 3.80496 -5.42564 
122 1 -0.695799 0.316144 -8.83608 
120 1 -4.30192 1.76363 -7.35635 
121 1 -1.83423 0.395103 -5.92844 
124 2 -1.40672 2.88196 -7.1662 
201 2 -3.00384 2.94688 -5.19005 
126 2 -9.4814 6.78576 -8.67277 
141 1 -10.7694 5.84292 -5.50232 
127 2 -8.87267 4.93965 -7.3986 
129 2 -6.44102 5.29124 -7.36936 
130 2 -5.14764 7.36182 -7.18227 
132 1 -8.05978 7.4084 -6.32373 
133 2 -7.85395 4.83626 -5.31048 
213 2 -5.67968 6.2271 -5.07599 
400 2 -4.15024 8.77595 -8.93711 
125 1 -3.68845 4.82085 -7.06919 
136 1 -0.12224 7.65281 -6.95753 
138 2 -1.29452 5.2116 -8.26559 
139 2 -2.70784 7.34771 -7.45739 
140 1 -1.24397 5.41777 -5.30422 
215 2 -3.3068 7.25388 -5.08312 
144 1 -10.5325 -6.58975 -4.31125 
94 2 -12.9033 -4.98736 -3.99726 
142 1 -12.0814 -6.05148 -1.50337 
143 1 -10.0327 -8.41073 -1.69096 
145 2 -9.24056 -5.76161 -1.75913 
146 1 -7.50487 -7.61572 -3.16632 
147 1 -5.14243 -7.91531 -1.39319 
148 2 -4.96499 -5.80468 -3.21899 
149 1 -7.53702 -4.7413 -3.73857 
164 1 -5.927 -4.62227 -0.938768 
150 1 -2.49902 -6.12761 -1.34375 
151 1 -0.586594 -5.38052 -4.24091 
152 1 -2.90818 -7.56809 -3.89212 
153 2 -0.785611 -8.8333 -2.97288 
155 1 -0.420023 -8.52954 -0.108821 
156 2 -13.2689 -3.57839 -1.92433 
158 1 -10.6787 -3.75799 -3.2142 
159 1 -13.0285 -2.08938 -4.33526 
160 2 -13.2581 -1.17895 -1.69681 
161 1 -10.7464 -0.786202 -2.35712 
163 1 -11.23 -3.12728 -0.143695 
165 2 -8.70198 -3.44137 -1.43092 
166 2 -5.99936 -2.59109 -3.22861 
167 2 -8.46252 -1.96903 -3.31251 
168 1 -6.87075 -1.5336 -0.90304 
169 2 -6.70243 -0.255577 -3.59747 
172 2 -4.43269 -0.687361 -2.28593 
173 1 -3.46275 -3.52659 -2.97885 
174 2 -4.35437 -2.41289 -0.474498 
175 2 -1.01997 -3.76042 -1.94656 
176 2 -2.28673 -1.12047 -3.5875 
177 1 -2.00467 -1.35333 -0.882981 
264 2 -14.5966 0.454908 -0.446141 
157 2 -14.2527 0.218056 -3.4501 
179 2 -13.9219 2.60506 -4.10652 
181 2 -9.0929 0.196797 -4.46633 
183 1 -12.6676 1.696 -1.87606 
184 2 -11.7912 3.74433 -3.71565 
185 2 -10.6827 3.84776 -1.45459 
186 2 -10.1119 2.02206 -3.03786 
187 2 -10.0786 1.45104 -0.596094 
188 2 -13.1164 4.39499 -1.44287 
190 2 -8.36023 0.537357 -2.0183 
191 2 -5.95492 1.22643 -1.77775 
192 1 -7.57019 2.41937 -4.03943 
193 1 -8.03642 3.28 -1.12778 
194 1 -5.00224 3.54354 -2.64785 
196 2 -3.06139 1.1594 -3.54351 
197 1 -3.07849 1.65668 -0.936199 
198 2 -2.2232 3.46885 -2.93615 
199 2 -0.913174 0.605136 -2.56779 
200 1 -0.172904 2.92728 -1.08193 
626 1 -0.21538 2.63275 -4.40981 
189 2 -9.40986 4.53263 -3.44037 
203 1 -11.0067 8.32289 -1.13411 
204 2 -11.3628 5.99042 -2.64744 
205 2 -9.65218 7.61746 -3.68826 
206 2 -11.3865 5.70823 -0.0794614 
207 1 -8.85363 6.34233 -1.32251 
208 2 -6.73244 7.92523 -1.15278 
209 2 -7.02859 5.27805 -3.14138 
210 2 -6.0534 5.42286 -0.946816 
211 2 -7.21028 7.67996 -3.62864 
212 1 -4.61942 7.08708 -2.60297 
219 2 -0.271176 5.67447 -0.419783 
214 1 -2.90077 4.98241 -0.873841 
216 2 -3.58237 5.11909 -4.12493 
217 1 -1.56212 7.3203 -2.73878 
218 2 -0.255767 4.98931 -2.77754 
220 2 -11.4008 -7.86562 0.531356 
222 1 -12.3564 -6.08462 2.323 
223 2 -9.80768 -7.16951 2.281 
224 1 -10.1074 -4.6098 3.48072 
225 2 -10.2501 -5.62053 0.50416 
221 2 -13.5039 -4.64114 0.346912 
227 1 -8.45029 -8.621 4.06067 
228 1 -7.70803 -6.88383 0.30332 
229 1 -5.74984 -7.68749 2.85961 
230 2 -7.82873 -5.95419 2.96362 
231 2 -5.92021 -4.94979 1.95528 
233 2 -4.40694 -6.34564 0.640065 
236 2 -0.231883 -5.39509 0.0568028 
237 2 -3.81314 -5.64009 2.83255 
238 2 -1.93272 -6.71225 1.43635 
239 2 -1.58125 -5.44377 3.48207 
240 2 -2.8303 -7.63081 3.85975 
235 1 -3.53069 -8.96074 1.24782 
242 1 -14.2737 -2.06059 0.683441 
244 2 -12.4809 -3.37749 2.31507 
246 2 -13.0754 -1.10435 3.07928 
247 1 -10.2939 -1.74122 2.60473 
248 1 -11.9949 -0.165262 0.60431 
250 2 -9.32618 -0.981975 0.0812012 
251 1 -8.30921 -3.72987 1.13749 
252 2 -5.71287 -2.60675 1.51228 
253 2 -7.54003 -1.04664 1.92121 
254 1 -7.19891 -3.30345 4.04958 
255 2 -5.74757 -1.00666 3.73503 
256 2 -8.32988 -0.625554 4.24834 
257 2 -4.41282 -3.34083 3.5236 
258 1 -2.57652 -3.91144 1.0188 
259 1 -3.55581 -1.03329 2.13423 
260 2 -1.72442 -2.61335 3.68637 
261 2 -0.847579 -1.54639 1.74069 
686 2 -0.0149715 -3.81591 2.37189 
265 2 -14.1049 0.936449 1.93778 
269 1 -13.6169 3.3519 3.26565 
180 2 -14.4582 2.82629 0.231589 
267 1 -11.9387 2.90422 0.825075 
268 2 -11.8619 1.14919 3.02866 
270 2 -10.7246 3.26982 3.26826 
271 2 -9.66623 4.20554 1.00439 
272 1 -9.32197 1.17537 2.05737 
274 2 -4.98584 0.114657 0.21124 
275 1 -5.43762 3.11184 0.447421 
276 2 -7.37786 0.962381 0.244282 
277 2 -5.17763 3.06718 3.39482 
278 2 -6.06684 0.987894 2.33473 
279 2 -7.53383 3.16102 2.20327 
263 1 -1.24736 0.304613 3.82563 
283 2 -1.66135 0.695233 1.07872 
284 2 -1.87828 3.26351 1.04186 
285 2 -3.61453 1.75998 1.99697 
286 1 -2.19705 3.61356 3.71195 
282 2 -3.90785 1.10259 4.33393 
288 2 -13.5795 5.11221 0.982844 
291 2 -12.4175 7.40921 1.30106 
292 2 -11.6082 5.3686 2.49879 
293 1 -9.76272 7.28819 1.62161 
294 2 -8.88883 5.17679 3.13637 
295 2 -5.45969 8.44276 2.79665 
296 2 -7.13014 7.60356 1.20272 
297 2 -7.56419 5.24501 0.861824 
298 1 -6.17838 5.68246 3.04714 
299 2 -7.92798 7.65035 3.74291 
301 1 -4.51538 6.94758 0.604978 
302 2 -3.862 4.62149 1.91334 
303 2 -1.78461 7.68963 0.0974152 
304 2 -1.71868 5.75859 1.64658 
305 1 -3.33423 6.77908 3.68994 
306 2 -1.25218 8.00581 2.64532 
307 2 -0.376917 5.99224 3.93712 
226 2 -10.5898 -6.98051 4.6631 
309 1 -10.6018 -4.94237 6.58941 
310 2 -9.49924 -7.65776 6.82704 
232 1 -4.96474 -5.78067 5.28558 
234 2 -6.12157 -8.22881 5.49041 
311 2 -8.56521 -5.53926 8.49797 
312 1 -6.93861 -7.71353 7.99313 
313 2 -6.1816 -5.02947 7.74908 
315 1 -7.93364 -5.90476 5.63169 
241 2 -0.560596 -7.49534 4.88656 
316 1 -4.0037 -6.64784 8.38963 
317 2 -0.775921 -5.02259 7.66193 
318 2 -3.73653 -8.13153 6.195 
319 1 -0.930389 -7.69004 7.90281 
321 2 -2.2594 -6.18565 6.0474 
243 2 -9.63645 -2.54549 5.22754 
245 2 -12.0258 -3.04843 4.73857 
249 1 -11.31 -0.375664 5.09811 
324 1 -11.3004 -2.20429 7.46435 
327 2 -6.44934 -1.13541 6.12342 
328 1 -8.0152 -3.12674 7.19825 
329 1 -5.35162 -1.77795 8.57341 
332 2 -5.36127 -3.31452 6.13218 
343 1 -8.97178 -0.0899387 6.91071 
262 2 -2.7565 -4.0632 5.16 
333 1 -3.14223 -3.78493 7.76827 
334 1 -2.57397 -0.87954 8.6496 
335 1 -0.639957 -2.35255 6.47481 
337 1 -3.55595 -1.38139 5.5052 
266 2 -13.7218 0.899062 4.54803 
273 2 -9.3149 1.70883 4.70616 
338 2 -11.5312 0.465322 7.84506 
339 1 -11.6725 2.43591 6.00964 
342 2 -9.76956 4.23163 5.145 
280 2 -7.4059 3.69653 4.59887 
281 1 -6.5397 1.32661 5.14808 
345 2 -8.62477 2.91329 6.75171 
346 2 -6.80823 0.809812 8.18354 
347 1 -6.07828 3.333 7.42153 
350 2 -4.62483 0.596451 7.01659 
349 2 -1.46744 0.264379 6.51924 
351 1 -2.74439 2.5746 6.44945 
353 2 -1.43068 1.59311 8.8848 
354 1 -0.756174 4.19027 8.40185 
786 2 -0.0645679 3.90383 5.73208 
290 1 -10.5204 6.8954 4.69679 
355 2 -12.1725 4.87274 4.99937 
356 1 -10.5049 5.09562 7.50636 
357 1 -8.54548 8.9466 6.09612 
300 2 -5.85063 7.49434 5.21474 
359 2 -8.09871 7.41232 8.29006 
360 1 -7.81339 5.85913 6.08591 
361 2 -5.76074 6.16876 7.84208 
364 1 -5.75748 8.92878 7.64542 
365 1 -4.7232 4.79981 5.45073 
308 1 -1.12533 8.20552 5.44755 
367 2 -1.97463 5.40259 5.87883 
368 2 -3.54523 4.82099 7.91959 
369 2 -3.72065 7.18934 6.58452 
370 2 -1.62918 6.78287 7.80572 
40 2 -4.98941 -8.65088 9.81154 
314 1 -6.51101 -6.32554 10.534 
320 2 -2.03423 -5.33399 9.76299 
322 1 -2.2651 -7.96509 10.6992 
374 2 -3.86453 -5.79226 11.3122 
375 2 -1.29378 -4.62675 12.0481 
323 2 -9.69489 -3.34126 9.29934 
325 2 -10.1521 -0.718815 9.55699 
373 2 -5.66856 -4.06533 12.0008 
326 2 -4.97975 -4.32191 9.6536 
330 2 -7.86017 -1.20408 9.24517 
331 2 -7.2953 -3.66875 9.88532 
377 2 -8.73288 -2.18375 11.2857 
378 2 -6.19463 -1.79746 11.2456 
379 2 -4.72728 -1.9429 13.205 
336 1 -0.308212 -3.05639 9.489 
380 1 -3.22811 -3.02231 11.0484 
381 2 -0.816087 -2.04764 11.8794 
386 2 -0.744314 -0.104609 10.5591 
387 1 -3.41809 -0.160805 11.4558 
340 1 -9.60055 2.05159 9.03102 
382 1 -8.21178 0.524124 11.3801 
344 2 -6.83921 2.56817 9.97474 
348 2 -5.76557 0.380601 10.3168 
383 1 -5.0597 2.78943 12.0686 
384 2 -8.6812 3.22183 11.3883 
385 2 -5.83613 0.239061 12.823 
352 1 -4.01811 2.09311 9.24173 
388 1 -1.71966 2.23236 11.6959 
389 2 -2.94343 4.15813 13.2952 
396 1 -0.158831 0.150925 13.3184 
835 2 -0.02965 4.46936 11.1283 
341 1 -8.09243 4.87215 9.20057 
358 2 -5.31134 4.67185 9.79589 
362 2 -4.53907 5.77455 12.0022 
363 1 -6.35258 7.29163 10.4259 
390 2 -6.85932 4.83175 11.7017 
810 2 -0.272795 6.62111 9.77483 
372 1 -2.69096 4.51304 10.5287 
397 2 -0.536222 4.79863 13.4406 
391 1 -1.79155 6.7831 12.1098 
366 2 -1.64465 8.85006 10.2158 
371 1 -3.63006 7.12485 9.49079 
392 2 -2.38313 -1.57184 13.6366 
393 1 -0.202623 -3.15241 14.2253 
394 1 -3.40664 0.994496 14.0797 
395 2 -1.2507 2.58511 14.3825 
398 1 -6.59965 9.68333 -7.78863 
409 2 -7.92705 9.85544 -5.18426 
411 1 -5.35804 9.12613 -5.13131 
399 2 -4.06316 10.6625 -7.31865 
401 2 -2.64077 9.30695 -5.95562 
402 2 -1.74405 9.685 -8.18389 
403 2 -1.73756 11.5218 -6.36361 
412 2 -3.85953 11.4334 -4.91698 
416 1 -0.394502 9.69314 -4.6242 
405 1 -8.33911 9.89259 -2.50406 
406 2 -6.25253 11.4191 -3.90757 
407 2 -6.65878 11.8293 -1.46851 
408 2 -5.55272 9.64607 -2.39861 
418 2 -3.51862 9.10824 -0.976347 
410 1 -3.98239 11.8347 -2.04264 
413 2 -3.1125 9.51715 -3.47698 
414 2 -1.74302 11.9471 -3.75917 
415 1 -1.11189 10.1914 -1.56006 
417 2 -1.45771 13.0194 -1.47884 
421 2 -3.37579 13.9995 -0.337298 
420 2 -0.449537 14.0733 -3.50091 
289 2 -9.88584 9.28806 3.63493 
422 2 -8.53447 11.2007 4.45768 
423 1 -5.72151 9.98542 0.399621 
424 2 -7.90091 9.69778 2.31032 
426 1 -5.43954 12.9383 0.846628 
427 2 -6.75005 11.801 2.87423 
428 2 -4.51151 10.8677 2.7118 
202 2 -8.60327 9.179 0.0162275 
425 2 -6.57409 9.81358 4.38782 
404 2 -7.94242 11.5443 0.617291 
430 2 -2.00434 10.2464 3.37533 
431 1 -2.61855 11.535 0.733428 
432 2 -0.523783 9.75548 1.1128 
436 1 -3.14274 13.1877 3.23246 
865 1 -0.250167 12.1924 2.92849 
435 2 -3.25177 9.03438 1.68216 
437 1 -1.09266 14.3135 0.995444 
429 2 -5.13992 12.0602 4.78423 
438 2 -6.77804 11.1418 6.37559 
433 2 -0.887759 13.4143 5.2706 
439 2 -4.37706 11.4462 7.08893 
434 1 -4.01439 9.49631 5.04324 
441 2 -1.86601 12.3236 7.6108 
442 1 -2.50749 9.63394 7.7471 
443 2 -2.43626 11.5639 5.38755 
440 2 -4.30359 9.64124 9.84118 
879 2 -0.342972 10.8084 9.05757 
445 2 0.867295 -11.0917 -6.85531 
446 1 2.0906 -9.66549 -8.97331 
447 2 3.09339 -11.9865 -7.67085 
448 2 3.06449 -10.1324 -6.15463 
455 2 2.30929 -12.2154 -5.16826 
449 2 4.78829 -11.7784 -5.83579 
450 2 4.98032 -10.1547 -7.75395 
451 1 7.69562 -10.3733 -6.74533 
452 2 5.6716 -9.46433 -5.31759 
453 1 1.07912 -13.7326 -3.28868 
454 2 4.08775 -13.3951 -3.99439 
456 2 1.55658 -13.0594 -0.741803 
457 2 1.19404 -10.1617 -4.34503 
458 1 3.19725 -11.4028 -2.54858 
459 1 4.12349 -9.34801 -0.272935 
460 2 1.68386 -10.584 -0.359948 
465 2 8.09762 -9.6398 -4.07095 
461 1 6.39005 -11.7425 -3.74895 
462 2 5.72278 -9.47604 -2.53211 
463 2 5.64681 -11.5346 -1.16781 
464 1 8.28698 -10.038 -1.36143 
467 2 0.39671 -13.5745 3.77026 
468 2 2.56266 -13.6695 2.75774 
469 2 0.150855 -11.2414 4.45 
470 2 1.82881 -9.25689 1.57507 
471 1 0.349317 -12.0084 1.52497 
472 1 3.67485 -12.2215 0.744506 
473 2 2.27176 -11.304 3.16666 
474 2 4.14473 -10.0042 2.49304 
476 2 4.53635 -12.2839 3.43461 
477 1 6.65261 -10.9744 1.24598 
478 2 8.45615 -10.6357 3.3202 
479 2 6.144 -10.4347 3.89565 
481 1 10.6595 -9.20574 3.26356 
482 2 9.56467 -10.7702 1.07133 
475 2 4.02003 -10.4448 5.12949 
483 1 2.35543 -12.5566 5.55532 
485 1 1.30269 -9.98074 7.03758 
486 2 4.07686 -10.7805 7.49378 
488 1 6.59054 -9.41304 6.43287 
487 1 2.97801 -9.75073 9.7172 
490 2 2.60836 2.41 -14.5011 
491 2 1.00866 -5.7244 -11.6357 
492 2 2.92606 -7.4903 -11.2151 
512 2 0.56774 -7.89803 -10.6475 
518 2 4.38958 -8.47743 -9.55121 
494 2 3.39084 -5.06607 -11.3163 
519 2 7.65483 -5.9394 -9.72636 
520 2 4.98675 -6.11973 -9.82476 
544 2 10.2193 -5.23953 -9.38413 
493 2 4.38414 -3.6229 -13.0629 
495 2 1.95709 -3.4421 -12.6182 
496 2 3.17317 -1.29533 -13.0498 
497 1 1.23981 -1.00902 -11.0665 
531 2 1.60249 -3.84192 -10.1393 
498 2 3.60956 -2.54187 -10.9551 
547 2 3.87214 -0.0539096 -10.5344 
499 1 5.8552 -1.52212 -12.2689 
500 2 7.93723 -0.808537 -10.8388 
535 2 5.70781 -3.98504 -10.8755 
537 1 8.33588 -3.29444 -10.0347 
539 1 5.55375 -1.62153 -9.1165 
543 1 10.2615 -0.810361 -9.34824 
501 2 3.66323 3.70486 -12.6454 
502 1 0.91084 3.47567 -12.7826 
503 2 2.20522 1.57575 -11.3337 
551 1 4.14251 2.89949 -10.0628 
504 1 4.43854 1.14519 -12.9478 
119 1 0.800356 3.01277 -9.4344 
489 2 1.48042 0.532745 -13.3938 
536 2 6.19533 0.946315 -10.5939 
505 2 7.25893 0.769797 -12.7885 
506 1 6.55177 3.34493 -12.0945 
559 1 7.37526 3.22454 -9.11229 
507 2 9.06637 4.26015 -11.138 
560 1 9.13919 1.59624 -10.9078 
563 1 10.7439 3.86172 -9.08701 
508 2 2.49197 5.83401 -13.0991 
510 1 2.13038 7.68188 -10.9865 
565 2 2.07155 4.9287 -10.8671 
566 2 0.747645 6.19153 -9.16155 
840 2 0.38106 8.97803 -9.34552 
509 1 4.69819 5.80081 -11.2738 
570 1 4.75835 8.30835 -9.57107 
572 2 7.25755 5.68849 -10.6661 
575 2 7.38821 7.72425 -9.32038 
513 2 3.80148 -8.0461 -7.11964 
514 1 2.21721 -6.43876 -8.83458 
515 2 1.46978 -8.39736 -6.58509 
582 1 2.50259 -5.9529 -5.59782 
516 2 4.46316 -5.63769 -7.34743 
511 2 0.0159876 -6.41383 -6.69417 
517 2 7.54875 -7.89479 -5.72832 
521 1 6.36077 -7.59428 -7.97347 
522 1 6.70448 -5.03147 -5.86953 
523 2 8.61553 -4.85642 -7.66762 
596 2 5.13054 -7.03752 -5.32776 
524 2 9.17065 -6.20272 -5.59283 
525 1 9.39025 -7.52038 -7.94102 
526 2 11.0012 -5.33082 -6.95813 
598 2 9.89539 -8.5426 -5.37546 
528 2 2.68232 -1.08678 -4.92232 
529 2 1.13689 -0.943284 -6.92907 
530 1 1.21174 -3.76477 -7.31303 
532 2 2.6766 -1.78284 -8.73109 
533 2 3.77898 -3.99877 -8.97689 
534 1 4.24301 -2.95383 -6.37892 
552 2 3.57398 -0.114148 -7.01656 
605 2 2.07754 -3.46377 -4.61024 
538 2 6.21986 -4.31561 -8.45557 
540 1 7.7885 -2.22369 -7.19759 
541 2 5.90009 -0.542409 -6.48138 
609 2 6.35731 -2.553 -4.62376 
611 2 7.97456 -0.722557 -4.73895 
542 2 10.404 -3.10918 -7.83432 
545 2 12.3895 -1.47288 -7.76771 
546 1 10.1746 -0.60634 -6.35925 
615 1 9.44417 -3.53371 -5.09842 
620 1 12.2881 -3.17463 -5.62245 
621 2 12.8326 -0.585437 -5.45884 
550 2 2.17463 0.672696 -8.89275 
548 2 0.787146 1.51994 -6.85355 
549 2 3.06871 2.54803 -7.48927 
553 1 1.0031 4.28851 -6.84264 
625 2 0.521181 0.03299 -4.71601 
630 1 2.72837 1.69159 -4.78771 
554 2 7.69842 0.201475 -8.64092 
555 2 5.01314 1.84357 -5.9837 
556 1 7.63245 1.65609 -6.30515 
557 2 5.27 3.64045 -7.58887 
558 2 5.36551 1.14341 -8.29523 
561 2 10.4298 1.98136 -5.40988 
562 2 9.65605 1.58958 -8.10931 
564 1 12.257 1.31856 -7.44486 
580 2 9.24876 3.6974 -6.91979 
581 1 11.9314 4.12283 -6.17208 
841 2 2.21574 8.82044 -5.63442 
567 2 2.40444 8.12916 -8.06044 
568 1 3.34732 5.48093 -8.47737 
569 2 2.28649 6.49062 -6.14084 
571 1 4.0726 4.55488 -5.34723 
577 2 8.59304 5.65719 -8.5458 
573 1 4.92273 7.53189 -6.60507 
574 1 7.03987 5.10396 -6.04025 
576 2 6.04191 5.81006 -8.5656 
578 1 8.08497 7.94813 -6.7015 
579 2 9.95574 5.96621 -6.55362 
583 2 0.12932 -6.72599 -2.06011 
584 2 2.42294 -6.59823 -2.92527 
585 2 0.767146 -7.72411 -4.37146 
586 2 4.03493 -4.78289 -0.766404 
587 1 3.53806 -8.71076 -3.97723 
588 1 2.26716 -6.90873 -0.187754 
589 2 1.58811 -8.91769 -2.10982 
590 2 4.59754 -7.12815 -1.90038 
591 1 7.04545 -7.20999 -3.26158 
592 2 6.32042 -5.43157 -1.23186 
593 2 8.73355 -7.10629 -1.07771 
594 1 4.53712 -4.81295 -3.54848 
595 2 6.57024 -8.13647 -0.541019 
601 1 11.6714 -6.3419 -4.43199 
599 2 10.9155 -6.0877 -1.69665 
600 2 9.28164 -5.66226 -3.2989 
602 2 12.4304 -7.81807 -2.12339 
466 2 9.95812 -8.17228 -2.90237 
679 1 13.0535 -5.78967 -0.0768585 
603 1 1.61266 -4.3055 -2.04865 
604 1 0.985286 -1.5138 -2.56979 
606 2 3.67578 -2.27539 -3.10493 
607 1 3.22738 -2.31094 -0.262006 
608 2 0.213831 -2.85501 -0.0471402 
710 1 0.667419 -0.0863199 -0.0844664 
597 2 7.25495 -4.38522 -3.30811 
610 1 6.00666 -2.44572 -1.72174 
612 2 8.48803 -2.26059 -2.96517 
613 1 8.74386 -4.22847 -1.04037 
614 1 5.40004 -0.0457417 -3.86849 
616 1 11.4835 -3.62984 -2.74866 
617 2 12.2365 -1.50765 -0.904713 
618 1 10.7652 -0.699005 -3.4928 
619 2 9.92724 -1.82076 -1.04634 
622 2 13.3765 -1.42236 -3.12221 
701 2 11.3543 -3.69356 -0.0475581 
623 2 13.7611 -3.38382 -1.23777 
624 2 14.5712 -1.05484 -0.82563 
627 2 1.38522 1.28235 -2.50375 
628 1 3.61805 0.168584 -1.62865 
629 1 3.40212 3.24305 -2.25616 
631 2 2.235 2.06278 -0.0590949 
633 2 9.01215 3.93492 -4.47518 
632 1 8.05451 0.110939 -1.60381 
634 2 5.85376 1.58912 -1.42701 
635 2 6.19396 3.98396 -1.09852 
636 1 6.23562 2.96077 -3.75243 
637 2 8.51851 3.07545 -2.07248 
639 2 8.71057 1.40974 -3.85106 
662 2 11.2081 3.76206 -3.47312 
638 2 12.9083 0.7496 -1.56018 
640 2 10.6469 1.69615 -2.33031 
641 1 12.9178 1.71393 -4.18792 
642 2 13.038 3.20924 -1.85343 
723 1 10.723 3.61509 -0.404276 
644 2 1.6826 4.60246 -4.16578 
645 2 0.79154 7.00947 -4.28206 
646 2 0.441302 8.09509 -0.869601 
647 2 4.28587 8.28352 -2.07009 
648 2 3.52196 7.125 -4.14205 
649 1 2.13371 6.16539 -1.91474 
650 2 4.14576 5.06762 -0.373608 
655 2 8.78569 6.50255 -4.4002 
653 2 4.89426 5.51446 -2.83741 
654 2 8.35957 5.00861 -0.458866 
656 2 7.38813 5.30137 -2.84962 
657 1 6.37015 7.69676 -3.88174 
658 1 6.0986 6.79989 -0.643768 
659 1 8.76453 7.64171 -1.61813 
862 2 11.2886 8.14086 -1.99194 
664 1 11.4213 6.66103 -4.31847 
660 2 12.2286 5.63066 -1.95014 
661 2 9.83119 5.3613 -2.39942 
663 2 13.4099 4.60032 -3.91607 
666 1 1.89242 -8.91694 4.30693 
667 1 0.824318 -6.50647 2.46042 
668 2 3.52308 -7.615 2.23294 
670 2 3.74491 -5.11631 1.97211 
672 2 5.91671 -8.43125 1.88375 
673 2 4.8647 -8.34126 4.22886 
674 1 7.73555 -8.05098 3.93437 
675 1 8.30706 -4.88348 4.2095 
676 2 4.97865 -6.6041 0.519796 
677 2 5.65398 -6.18091 3.0296 
678 1 7.58944 -6.16694 1.20628 
480 2 8.36609 -8.7533 1.28265 
680 1 10.8538 -8.44998 0.0636758 
681 2 10.3219 -5.78285 0.562042 
682 2 9.72513 -6.86684 2.50662 
683 2 12.1225 -7.11132 2.15892 
684 1 11.3449 -4.54991 2.77257 
687 2 1.84834 -4.35223 0.863637 
689 2 0.662156 -1.95117 4.11074 
690 2 2.37902 -3.65542 3.31918 
691 2 1.60104 -1.82566 1.89477 
692 2 4.03269 -1.94277 2.3755 
693 1 5.92162 -3.66406 1.12992 
694 1 5.25623 -3.72474 4.25771 
695 2 7.53601 -2.48164 3.04457 
696 1 5.7818 -0.382941 0.71782 
697 2 8.00153 -1.94403 0.406377 
698 2 5.87289 -0.894553 3.58514 
699 1 8.61578 -0.0429411 2.28347 
700 2 8.92846 -3.87798 1.69721 
703 2 10.4257 -2.03948 1.41938 
704 1 9.86859 -1.90191 4.45573 
707 1 13.348 -2.55918 1.45869 
724 2 11.5885 -0.47379 2.72934 
705 2 12.5305 -2.48083 4.2168 
702 2 13.9463 -0.588328 3.35806 
708 2 0.248878 2.00993 1.56079 
709 2 0.258825 4.39067 2.01226 
711 2 3.07158 0.119796 1.18972 
713 2 1.5004 0.346534 3.16805 
714 2 4.01856 0.885199 3.20683 
715 2 2.42153 2.73999 2.44123 
652 2 1.85838 4.40757 0.181756 
287 2 0.263637 2.50309 3.8522 
718 1 4.70055 2.60666 0.876147 
719 1 5.06188 3.46246 4.05012 
720 2 6.32652 1.37305 2.8253 
721 1 7.88197 2.36428 0.558322 
722 2 7.98081 2.90557 3.34896 
706 2 13.3683 0.111742 1.00126 
727 2 10.2467 2.38614 2.10327 
728 2 12.9431 2.41711 0.519924 
729 1 12.7875 1.96966 3.23675 
732 2 11.8633 4.28901 2.0922 
725 2 10.295 1.13998 4.15469 
726 1 10.7388 0.538484 0.175384 
863 2 3.22353 8.89347 2.24608 
716 2 1.61625 4.57336 4.04801 
733 1 3.46146 5.3623 2.15359 
734 1 2.43365 7.18414 4.26766 
735 1 0.999846 7.09858 1.52604 
651 2 3.33274 7.51333 0.131599 
736 2 5.20365 7.58742 1.81647 
738 2 4.96077 8.58836 4.04077 
739 2 7.41717 5.14911 4.48282 
740 1 6.56421 4.96012 1.81349 
741 2 5.17245 6.23084 4.1439 
743 2 8.48124 6.74959 1.13317 
744 2 7.19837 7.47969 3.14042 
746 2 9.37482 4.66248 1.9334 
747 2 11.1608 6.26582 3.32831 
749 2 9.86165 8.18723 2.45391 
731 2 12.6695 4.59012 4.46543 
643 2 13.251 4.80923 0.109535 
665 1 11.0728 6.53438 0.391875 
669 1 3.16391 -6.10444 4.55965 
671 1 0.335408 -4.75838 5.12587 
753 2 1.28369 -7.20221 6.30422 
754 2 1.69186 -7.69795 8.6511 
755 1 1.89502 -5.08291 7.82293 
756 1 3.82676 -8.12497 6.8961 
758 2 4.39544 -5.32664 6.96064 
763 2 5.53279 -8.92865 9.00328 
759 2 8.14089 -6.70685 6.30313 
760 2 8.12728 -5.45799 8.45812 
761 2 6.14007 -6.88934 7.79644 
765 2 5.89355 -6.48657 5.39672 
766 2 6.75409 -4.54259 6.63226 
764 1 8.39873 -8.21682 8.62788 
774 2 5.76583 -4.77773 8.96427 
685 2 10.3838 -6.73828 4.75521 
767 2 9.46085 -8.72443 5.9748 
768 1 10.5625 -6.17739 7.37299 
688 1 3.30526 -1.17032 4.97922 
769 2 2.80178 -3.68167 5.6996 
771 2 0.248653 -0.29518 8.33983 
772 1 2.25979 -2.08645 7.79268 
773 2 0.916133 -0.110327 5.80018 
775 2 4.8171 -2.97354 6.98219 
776 2 5.1179 -0.751965 7.76463 
778 2 7.28655 -2.94026 8.64518 
779 1 7.15024 -1.84373 5.9192 
837 2 11.035 -4.35274 5.3906 
751 2 12.1949 -0.145257 5.13785 
782 2 9.07905 -3.74069 6.69706 
783 2 9.10159 -1.53914 7.91029 
785 1 11.5779 -2.18562 6.93418 
712 1 2.49097 2.16595 5.21594 
788 2 0.25617 1.90028 7.08269 
789 1 2.85215 0.804558 7.85024 
791 2 2.00119 3.54839 7.60418 
793 2 4.49481 3.12606 6.97063 
780 2 7.52195 0.407907 7.46449 
717 2 7.95987 0.582988 4.81108 
794 2 5.79592 1.62019 8.53037 
795 1 7.51377 2.94475 6.21459 
796 2 6.08829 4.20981 8.50248 
797 1 5.37255 0.862679 5.67743 
730 1 10.0849 3.93266 4.53652 
800 1 10.0114 0.723074 6.71857 
802 1 12.2918 2.4746 6.22151 
803 2 10.1003 3.651 7.23172 
801 2 10.9741 2.01657 8.81039 
883 2 1.42743 8.72537 6.24483 
806 1 1.05011 6.15383 6.91198 
808 2 3.70382 5.29364 8.09281 
809 1 3.94411 7.72096 6.8161 
811 2 3.35057 4.97097 5.67663 
804 2 0.023562 8.53252 8.18745 
737 1 6.75312 7.97521 5.87839 
814 2 5.72207 5.24702 6.29852 
815 2 5.83421 6.58808 8.32579 
816 1 8.41862 5.74661 7.21697 
817 1 7.46612 8.55664 8.68353 
745 2 10.965 6.08516 5.95584 
748 2 10.91 8.41658 4.66308 
812 2 9.35521 8.28892 6.55566 
750 2 9.08313 6.85353 4.53193 
752 1 0.468496 -6.04491 10.4454 
757 1 3.89553 -6.5983 9.73778 
820 2 2.14432 -7.84379 11.5013 
821 2 2.80872 -5.4929 12.0489 
484 2 0.299206 -8.93387 10.1753 
376 2 0.623167 -5.69676 13.1824 
762 2 6.58019 -6.83648 10.2456 
822 2 5.14927 -4.74748 11.404 
827 1 7.83401 -4.51318 10.955 
838 2 1.9968 -1.51778 13.3943 
770 2 2.4806 -3.95378 10.1046 
823 1 1.85016 -1.06657 10.723 
824 2 1.09179 -3.58549 11.9641 
825 2 3.52991 -3.1217 12.271 
839 2 4.2701 -0.839896 12.2656 
777 2 6.82273 -0.625806 9.53379 
826 1 4.65245 -2.49589 9.78583 
828 1 6.52002 -2.10352 11.9507 
829 2 8.73839 -1.8746 10.4384 
784 1 10.2066 -3.76155 9.18598 
787 2 4.24499 0.194419 10.0394 
790 1 3.92564 3.0145 9.84375 
792 1 1.01504 2.05811 10.0803 
830 2 0.688777 2.76645 12.8942 
831 1 2.91801 1.35067 12.4278 
832 2 2.40717 4.10307 11.8441 
798 1 8.32361 2.84862 9.2009 
799 2 6.45492 3.929 10.895 
833 1 6.24503 1.24864 11.4348 
834 2 4.69403 3.47725 12.4465 
781 2 9.16805 0.345493 9.48511 
882 2 0.772182 8.90373 10.5158 
805 2 1.78718 4.97815 9.59637 
807 2 2.30826 7.35161 9.21373 
836 1 1.45099 6.64371 11.9298 
818 1 4.4708 5.95216 10.699 
813 2 7.55944 5.80869 9.82331 
819 2 4.62177 8.48043 9.36582 
842 2 2.59181 10.0889 -9.5071 
843 1 0.868957 10.6959 -7.2993 
844 1 4.01051 10.4393 -7.1098 
851 2 2.35896 11.1317 -4.81244 
419 2 0.290805 12.4326 -5.20729 
845 2 6.4886 9.66873 -8.05355 
846 2 6.40054 9.86379 -5.64006 
857 2 4.70601 11.922 -4.83781 
848 1 0.897453 11.9758 -2.55452 
849 1 1.88265 9.15494 -2.85532 
850 2 4.31495 9.52501 -4.36385 
852 1 4.16444 11.2041 -2.10024 
853 2 2.97298 13.2351 -3.55253 
854 2 2.50865 13.0944 -0.849628 
858 1 8.92245 10.7839 -1.27822 
859 2 6.53834 9.34351 -1.67496 
855 1 6.91905 11.2421 -3.43288 
856 2 6.38555 11.4377 -0.311461 
861 1 9.154 9.21588 -4.05116 
867 1 0.825603 9.60501 3.52116 
868 2 2.77145 11.294 2.63567 
870 2 4.13585 12.0659 0.644573 
864 1 2.04809 10.2123 0.120727 
878 1 4.46395 12.8706 4.26149 
847 2 0.203879 12.1244 0.178038 
871 1 5.53246 10.6456 2.43089 
872 2 7.16859 12.3167 3.75222 
873 2 8.14001 11.5856 1.58079 
875 1 8.43584 9.8564 4.0474 
860 2 4.79644 9.47416 0.0743495 
742 1 7.57875 9.14469 0.925747 
876 2 10.3213 9.10898 0.230015 
877 1 2.09529 13.6556 1.77252 
444 1 0.172254 11.0852 6.26655 
881 2 2.92499 12.2522 6.81742 
869 2 1.75698 12.6499 4.59711 
866 1 3.26446 10.2965 5.14334 
880 1 2.35251 10.0663 8.46622 
884 1 5.22396 10.4954 7.569 
874 2 6.03668 10.617 5.10632 
