ITEM: TIMESTEP
90000
ITEM: NUMBER OF ATOMS
884
ITEM: BOX BOUNDS pp pp pp
-2.7057867000000002e+01 2.7057867000000002e+01
-2.7057867000000002e+01 2.7057867000000002e+01
-2.7057867000000002e+01 2.7057867000000002e+01
ITEM: ATOMS id type x y z 
111 1 -1.39576 -10.4588 -9.21711 
95 2 -3.63806 -10.8879 -2.39795 
92 2 -6.20982 -10.3611 -6.65993 
93 2 -4.51858 -12.351 -6.15989 
107 2 -4.0192 -10.6139 -8.16008 
109 2 -2.09754 -11.6633 -6.88079 
116 2 -0.526747 -12.0096 -5.04724 
110 1 -3.6197 -9.70805 -5.53531 
97 2 -2.70175 -9.21388 -0.891381 
56 2 -3.17259 -14.0839 -0.404747 
94 2 -10.2624 -8.91463 -5.10627 
144 1 -10.0018 -9.27779 -2.17099 
73 2 -9.7064 -11.1757 -0.0662405 
90 2 -8.17584 -10.1141 -4.55466 
91 1 -5.725 -11.3347 -4.03064 
81 2 -5.32204 -12.587 -1.07825 
74 1 -7.9358 -11.6948 -2.04217 
82 1 -5.55191 -10.0386 -0.536632 
79 2 -8.15174 -9.53729 -0.27067 
89 2 -7.15848 -9.14101 -2.599 
99 1 -1.28955 -10.129 -3.18681 
55 2 -2.89567 -12.0842 -4.4702 
58 2 -1.97895 -12.8295 -2.27969 
53 1 -2.56733 -13.7688 2.64693 
63 1 -9.25939 -10.0973 2.33472 
12 2 -11.0985 -9.13483 0.505445 
78 1 -5.40511 -12.6128 3.89217 
2 2 -6.84832 -10.4329 3.95849 
75 1 -7.37841 -12.0713 1.04811 
77 2 -4.90564 -13.4379 1.12438 
76 2 -5.10488 -10.8966 2.00263 
59 2 -0.790486 -11.9862 2.00251 
84 2 -2.93331 -10.9855 2.87361 
88 2 -3.57371 -9.01145 1.45584 
101 1 -0.754624 -9.28893 1.26551 
98 1 -2.82419 -11.6379 0.263411 
85 1 -4.14567 -9.05219 4.21275 
446 1 -2.2051 -10.2181 9.59906 
5 1 -5.7182 -10.378 6.62684 
83 1 -3.15646 -11.9692 5.70434 
54 2 -0.70087 -12.9203 4.83007 
86 1 -0.990005 -10.071 4.59412 
6 2 -3.91872 -11.4254 8.17136 
87 2 -3.06839 -9.49495 6.79677 
512 2 -1.11222 -11.202 7.14548 
52 2 -0.944226 -13.7617 0.172901 
291 2 -3.99806 -0.317467 -14.1479 
422 2 -0.0603924 1.92947 -13.64 
157 2 -7.70152 -7.67343 -9.60697 
179 2 -5.58376 -7.86412 -10.6577 
183 1 -6.13874 -5.32083 -9.61472 
188 2 -4.47033 -4.75576 -11.6773 
184 2 -3.55524 -6.61885 -9.88577 
141 1 -0.918356 -7.69492 -10.4256 
204 2 -1.96471 -5.40676 -11.4297 
246 2 -10.0335 -1.90693 -9.58446 
264 2 -8.65488 -4.43742 -10.3136 
265 2 -7.89048 -2.06462 -10.5642 
180 2 -6.75764 -3.64473 -11.8752 
267 1 -5.19105 -2.29475 -9.9866 
288 2 -4.6895 -2.48869 -12.7057 
268 2 -6.90654 -0.12747 -9.58029 
269 1 -6.4022 -0.406305 -12.3195 
185 2 -3.39497 -4.20668 -9.59941 
773 2 -1.71479 5.8157 -0.347037 
206 2 -2.57846 -2.74927 -11.8053 
207 1 -0.657881 -3.30819 -9.8202 
271 2 -2.34214 -1.06668 -9.86228 
293 1 -0.576481 -0.937439 -12.2103 
292 2 -3.72694 -0.430498 -11.7937 
338 2 -10.8762 1.11977 -9.49759 
266 2 -9.07314 0.0846385 -11.0158 
339 1 -8.3777 2.5335 -9.98669 
355 2 -7.49748 1.85385 -12.5448 
342 2 -5.84735 1.89032 -10.6225 
270 2 -4.4138 0.283363 -9.55586 
290 1 -4.76243 2.33 -12.9651 
294 2 -2.92992 1.6165 -10.885 
289 2 -2.34435 1.17433 -13.2505 
299 2 -0.587945 1.63541 -11.3443 
300 2 -0.428196 3.80611 -9.86597 
357 1 -1.82777 4.00518 -12.3864 
360 1 -3.83031 4.08493 -10.1787 
356 1 -6.76692 4.25072 -11.7056 
341 1 -5.74498 6.59437 -10.1402 
384 2 -7.73842 8.19896 -9.20987 
359 2 -4.16718 5.23627 -12.3908 
363 1 -3.15023 7.68285 -11.2497 
361 2 -1.95887 5.96889 -9.66874 
371 1 -0.730326 8.57676 -9.53852 
156 2 -10.2558 -6.74916 -6.46988 
221 2 -11.8938 -4.86156 -5.84403 
287 2 -0.556701 4.51642 -2.16498 
160 2 -8.59264 -5.93247 -8.16317 
159 1 -8.22872 -8.61828 -6.94994 
182 1 -5.41429 -8.23494 -8.05219 
162 2 -6.07778 -8.63476 -4.97718 
161 1 -6.6297 -5.69364 -6.44721 
189 2 -1.5592 -5.52721 -8.665 
181 2 -4.27778 -7.08002 -5.64186 
186 2 -3.86483 -5.56621 -7.71427 
106 1 -2.30908 -8.04548 -7.80191 
192 1 -1.64213 -5.78422 -5.85725 
190 2 -4.35176 -4.4689 -5.4744 
242 1 -10.7137 -4.4667 -8.20937 
244 2 -10.6023 -1.96127 -7.08169 
163 1 -9.30088 -4.29927 -5.49008 
247 1 -8.74482 -1.201 -5.21606 
248 1 -8.02758 -2.99018 -8.03672 
187 2 -5.28062 -3.57227 -7.5109 
250 2 -6.88008 -2.98676 -5.50476 
272 1 -5.9912 -1.01228 -7.1994 
276 2 -4.32222 -1.89208 -5.35282 
193 1 -2.60674 -3.07503 -7.37103 
210 2 -0.431681 -3.26143 -5.32697 
297 2 -0.595882 -1.18667 -7.73148 
275 1 -1.78842 -0.68589 -5.19139 
279 2 -3.19044 -0.359002 -7.50964 
249 1 -9.10632 0.358813 -7.91049 
324 1 -11.3646 2.45602 -6.88634 
245 2 -11.332 -0.0827848 -5.78042 
325 2 -10.5587 3.57408 -9.1545 
243 2 -9.63424 1.61803 -4.86948 
343 1 -8.49633 3.40671 -7.09138 
273 2 -6.42388 1.5733 -8.08275 
281 1 -5.46443 3.37567 -6.10749 
256 2 -7.17383 0.998486 -5.76696 
345 2 -6.16847 3.95856 -8.86319 
278 2 -4.38061 0.603356 -5.70555 
280 2 -4.08558 2.19437 -8.03226 
302 2 -0.144824 1.34401 -6.25341 
298 1 -1.34634 1.42075 -8.80069 
277 2 -2.64021 2.19151 -6.19639 
286 1 -0.469993 3.17681 -4.49127 
365 1 -1.66271 4.40104 -7.42091 
330 2 -10.3847 5.29452 -7.04738 
323 2 -12.4965 4.5009 -5.57101 
331 2 -11.4493 6.63956 -5.35267 
377 2 -10.3289 8.86558 -5.04547 
382 1 -8.737 7.58082 -6.7989 
340 1 -8.66503 5.64815 -9.34746 
346 2 -6.74739 5.71181 -7.41116 
348 2 -6.36215 7.47356 -5.5411 
344 2 -5.72535 8.0325 -7.68797 
350 2 -4.83849 5.68129 -4.88078 
351 1 -2.04479 5.85943 -4.7096 
347 1 -4.02155 5.69164 -7.54114 
352 1 -3.69313 8.26861 -5.95366 
368 2 -1.49916 7.21373 -7.39158 
358 2 -3.40049 8.02824 -8.72705 
354 1 -0.636018 8.38396 -4.90751 
142 1 -11.5584 -6.60982 -4.01374 
145 2 -9.64287 -6.51213 -1.84457 
143 1 -11.8713 -6.47808 -0.432565 
225 2 -10.284 -4.53597 -2.95499 
220 2 -12.4869 -4.42019 -2.18786 
158 1 -8.45449 -7.22069 -4.20679 
167 2 -5.90205 -6.31042 -3.78633 
149 1 -6.86975 -6.92344 -0.978146 
165 2 -7.80339 -4.9484 -2.84527 
114 2 -2.11343 -7.79427 -4.40631 
166 2 -4.65243 -5.63749 -1.5872 
96 1 -4.35981 -8.38517 -2.89833 
169 2 -3.39094 -5.79969 -3.59667 
171 1 -1.6662 -6.92428 -1.85483 
170 2 -4.40936 -7.45864 -0.19766 
196 2 -0.785852 -4.85813 -3.52152 
176 2 -0.778819 -4.75318 -0.295322 
228 1 -9.58767 -4.1229 -0.333393 
226 2 -13.3893 -0.489358 -4.06596 
223 2 -13.3463 -1.76025 -1.92745 
230 2 -11.0006 -2.47584 -1.61408 
222 1 -11.6053 -2.63107 -4.30208 
233 2 -9.14529 -1.32142 -0.479885 
224 1 -10.9732 -0.0456262 -2.82798 
227 1 -11.7861 -0.381391 0.0308609 
164 1 -6.61321 -3.92153 -0.332017 
251 1 -8.39556 -2.38603 -2.73504 
168 1 -5.42889 -3.57032 -3.27138 
253 2 -6.19707 -0.893038 -3.91674 
252 2 -6.43319 -1.30794 -1.2729 
174 2 -4.34774 -2.58515 -1.0842 
191 2 -2.73026 -3.30912 -4.34523 
172 2 -2.66499 -4.11443 -1.99793 
177 1 -1.87031 -2.01212 -0.142373 
274 2 -3.46769 -1.31022 -3.02437 
197 1 -0.725883 -2.17241 -2.83984 
311 2 -13.8149 3.34782 -1.7325 
231 2 -9.41398 1.133 -0.175609 
310 2 -13.337 0.912351 -1.821 
309 1 -12.8116 2.17993 -4.20323 
328 1 -10.0889 4.20639 -4.45977 
315 1 -11.1741 2.77721 -1.78442 
337 1 -5.55471 4.02516 -2.52078 
255 2 -5.59206 1.63045 -3.87993 
327 2 -7.48363 2.86838 -4.30538 
254 1 -8.03145 0.796734 -2.65042 
332 2 -8.24183 3.72643 -2.26581 
259 1 -4.7866 0.567209 -1.5544 
257 2 -7.0239 2.16112 -0.644848 
349 2 -3.12859 5.68692 -2.42891 
282 2 -3.33122 3.69668 -4.30879 
283 2 -1.70531 0.25772 -2.16365 
285 2 -3.09083 1.33744 -3.8108 
263 1 -2.69374 2.9369 -1.63137 
708 2 -0.0425002 2.17155 -1.97695 
374 2 -11.1975 7.47515 -1.16231 
326 2 -10.0106 6.95723 -3.43856 
373 2 -12.1153 8.11709 -3.3779 
314 1 -12.649 5.54659 -3.04558 
313 2 -10.156 5.28595 -1.7569 
320 2 -8.52136 8.60184 -0.39353 
329 1 -7.79052 5.54772 -4.49971 
378 2 -8.06873 8.13343 -3.5911 
334 1 -5.48992 7.30918 -2.82871 
333 1 -7.76877 6.33904 -1.29741 
771 2 -2.97535 7.8161 -0.929075 
788 2 -0.983445 7.14243 -2.23082 
353 2 -2.86554 8.04868 -3.46156 
108 2 -3.56922 -9.08637 -10.1281 
115 1 -0.27453 -9.30946 -6.03868 
14 2 -10.8614 -5.10842 1.86423 
11 2 -13.2876 -5.64209 1.84997 
16 1 -11.2564 -7.69551 2.87056 
146 1 -9.25367 -7.25706 0.750254 
148 2 -5.78018 -5.92515 1.23497 
147 1 -8.23673 -5.06542 2.23847 
152 1 -6.03719 -6.1645 3.88063 
17 2 -8.59429 -7.42297 3.59924 
80 1 -6.55506 -8.56263 1.9664 
154 2 -3.91882 -6.64384 2.46532 
100 2 -1.92932 -7.76045 3.19397 
178 1 -0.700978 -5.36182 2.44877 
173 1 -3.43293 -4.68739 0.682381 
104 2 -2.08963 -7.00342 0.813326 
19 1 -10.3229 -3.98587 4.25152 
28 2 -12.7142 -3.53393 3.09239 
13 1 -12.8569 -3.46042 0.304564 
32 2 -10.5903 -2.48778 1.64354 
29 2 -13.4523 -1.44918 2.09918 
31 1 -11.6988 -1.03085 4.02798 
235 1 -7.88829 -2.17961 2.08732 
238 2 -6.40552 -0.418107 3.32611 
150 1 -5.23079 -3.45302 2.85692 
258 1 -4.65396 -1.01999 1.14873 
20 2 -7.59512 -3.50737 4.4965 
175 2 -2.39547 -2.93255 2.30154 
236 2 -3.86715 -0.983258 3.75042 
608 2 -1.78685 -0.541262 2.12101 
229 1 -9.66312 0.0133661 2.2596 
41 2 -13.2763 2.35465 0.241954 
30 2 -12.4528 0.989084 2.3032 
234 2 -11.0685 2.37899 1.02619 
42 1 -13.1353 3.61518 2.69625 
318 2 -10.5202 4.21266 2.79965 
36 2 -10.8696 1.95395 3.79798 
237 2 -7.3468 -0.098822 0.511975 
232 1 -9.10961 3.8177 0.393946 
239 2 -6.20808 1.658 2.04118 
262 2 -6.51858 4.19419 0.238197 
671 1 -5.19413 4.04247 2.52234 
240 2 -8.61141 2.54042 2.72688 
260 2 -4.67026 2.60722 0.336715 
241 2 -6.9037 3.21886 4.36463 
686 2 -3.75281 1.41556 2.21959 
261 2 -2.59746 0.806095 0.125232 
691 2 -1.19468 1.87425 1.9465 
713 2 -0.446057 3.4524 0.114595 
689 2 -2.74513 3.59115 1.118 
690 2 -2.63056 3.28538 3.46956 
687 2 -2.22916 0.849742 4.09557 
322 1 -10.9511 8.8771 3.32423 
312 1 -12.2227 4.98821 0.134987 
316 1 -9.77858 6.60596 1.13075 
40 2 -12.3084 7.6981 1.06793 
46 2 -11.9055 6.33067 2.93782 
319 1 -9.23255 6.60092 3.98682 
321 2 -7.8861 4.80757 2.59305 
336 1 -5.79785 8.5768 0.162704 
317 2 -6.93528 6.37631 1.29193 
752 1 -7.9278 8.89628 2.30794 
755 1 -5.56196 7.13829 3.51732 
688 1 -0.690956 5.34887 2.15605 
789 1 -0.35719 8.09111 0.588268 
772 1 -3.13255 7.72073 1.71662 
769 2 -3.01337 5.6777 3.37924 
775 2 -1.11729 7.49878 3.60817 
335 1 -4.4081 5.65483 0.000182189 
15 2 -12.4139 -5.73362 4.27875 
18 2 -10.4185 -6.61148 5.40324 
10 2 -10.9679 -4.64124 6.80201 
8 1 -9.03703 -6.09777 8.21397 
3 2 -6.67922 -8.36899 5.00058 
4 2 -7.30357 -8.06873 7.64763 
22 1 -8.09925 -5.82118 5.9853 
21 2 -6.39426 -6.34318 9.08261 
7 1 -4.86468 -7.03995 6.68783 
151 1 -3.0043 -5.12371 4.53402 
511 2 -2.27331 -7.60668 5.70411 
582 1 -1.24583 -5.50328 7.06398 
515 2 -2.12499 -7.87749 8.46394 
585 2 -3.81952 -4.39619 7.5001 
25 2 -12.9277 -3.56302 5.60547 
38 2 -11.145 -2.1155 6.54981 
27 2 -13.2261 -0.940997 6.40438 
26 2 -11.4728 -0.64543 8.57135 
9 1 -9.77168 -3.09557 9.03899 
153 2 -5.60218 -4.37963 5.82117 
24 1 -6.63231 -3.57058 8.24406 
23 2 -8.8232 -3.16954 6.60226 
471 1 -8.64664 -0.610599 7.48986 
37 2 -9.17188 -1.34701 4.77293 
155 1 -6.17201 -1.40353 5.80967 
605 2 -0.224229 -4.14497 4.8892 
603 1 -1.38955 -1.83892 4.59681 
583 2 -3.8847 -2.74132 5.4185 
584 2 -2.05164 -2.83655 7.01358 
589 2 -4.21425 -2.1844 8.19227 
590 2 -1.7214 -0.952936 8.57843 
588 1 -3.40254 -0.176019 6.52078 
39 1 -11.0566 0.904831 6.42582 
33 2 -12.9883 1.3784 4.82531 
45 1 -12.2895 4.18405 5.28492 
47 2 -10.5257 4.14985 7.64969 
43 1 -9.40201 3.86741 5.25099 
470 2 -6.36139 1.02282 7.2442 
35 1 -8.09039 0.957047 4.8955 
666 1 -6.769 3.80182 7.20019 
469 2 -8.98238 2.07921 7.31992 
667 1 -4.87832 1.62041 4.72912 
586 2 -0.683962 0.286974 6.27233 
676 2 -1.6563 1.56691 7.93013 
668 2 -4.28936 2.40411 7.30527 
670 2 -2.23078 2.52241 5.76182 
677 2 -2.03607 3.97144 7.64801 
44 2 -10.8349 6.3224 6.24761 
484 2 -9.83564 8.71149 6.06109 
753 2 -6.94672 5.54338 5.05777 
754 2 -7.49643 8.09929 5.13949 
756 1 -5.60806 7.05282 7.1271 
485 1 -8.59997 6.38567 7.42708 
673 2 -4.22499 4.83804 8.38215 
669 1 -4.15242 4.60201 5.50341 
694 1 -1.08757 5.23458 5.40668 
758 2 -3.45794 7.42842 4.93586 
766 2 -1.29736 8.03386 6.19192 
765 2 -2.76412 6.53188 7.43426 
761 2 -3.4437 8.68119 7.40891 
453 1 -7.33469 -4.78283 10.9293 
454 2 -4.87375 -4.54844 12.3612 
455 2 -5.03866 -6.89247 11.0681 
457 2 -4.79063 -4.60924 9.91315 
448 2 -3.35809 -6.25756 9.10818 
447 2 -2.66642 -7.84261 10.9882 
513 2 -1.0486 -6.1955 9.82923 
449 2 -2.76558 -5.39497 11.4672 
450 2 -0.851567 -6.70477 12.2568 
518 2 -0.268238 -8.32868 10.0602 
468 2 -9.36064 -0.312996 10.1821 
456 2 -7.62742 -2.21533 10.5017 
460 2 -6.27355 -0.82375 8.80423 
458 1 -5.00562 -2.21982 10.9201 
452 2 -0.400906 -4.27006 11.3113 
587 1 -2.16384 -3.53066 9.61339 
461 1 -2.52629 -2.86304 12.7471 
464 1 -1.2602 0.320619 12.9136 
462 2 -2.31485 -1.11398 10.8836 
463 2 -3.93418 -0.496131 12.4053 
34 1 -10.9108 1.87448 9.2982 
472 1 -6.5502 0.309608 11.3057 
473 2 -7.73115 1.45558 9.24373 
467 2 -9.09407 1.94687 11.4874 
476 2 -6.86003 2.9696 11.5974 
483 1 -8.68969 3.95055 9.45842 
474 2 -5.43748 2.69634 9.51894 
479 2 -4.66069 4.45623 10.8327 
459 1 -4.08253 0.369837 9.29342 
595 2 -1.55753 1.04985 10.2545 
480 2 -1.21835 3.15992 11.635 
477 1 -3.73296 2.08316 12.0518 
672 2 -2.91294 3.07684 9.58762 
475 2 -6.43146 5.6023 9.27479 
486 2 -7.31554 7.82166 9.29221 
481 1 -0.569897 5.60385 12.9789 
488 1 -4.29432 7.32556 10.0925 
767 2 -2.12309 8.2529 11.3741 
674 1 -2.03948 5.55144 10.1361 
478 2 -3.06137 4.8124 12.5992 
759 2 -1.65416 7.96226 9.04661 
763 2 -5.43585 9.43231 8.84255 
1 1 -9.19838 -9.13731 5.61335 
445 2 -4.57969 -8.61921 9.0556 
482 2 -1.77885 2.98025 13.8813 
390 2 -5.4023 9.16749 -9.79791 
362 2 -2.93034 10.1612 -9.75146 
385 2 -7.0848 9.9683 -7.20696 
379 2 -8.46248 10.2832 -5.05068 
394 1 -6.13124 12.3895 -5.46109 
383 1 -4.5564 10.7008 -7.51696 
372 1 -1.62373 10.2106 -7.22248 
389 2 -2.83427 12.7019 -6.58285 
835 2 -0.637984 11.2286 -4.80026 
380 1 -9.81799 9.70217 -2.4575 
387 1 -5.97431 9.89751 -4.61524 
392 2 -7.94872 11.6215 -3.11324 
381 2 -6.88958 9.66446 -2.09667 
396 1 -5.2949 12.0324 -2.04908 
397 2 -1.6318 13.335 -4.4829 
395 2 -4.02446 13.2306 -4.10391 
792 1 -1.26123 9.94809 -2.08375 
832 2 -0.328545 12.389 -2.59715 
388 1 -3.27342 10.846 -4.44757 
386 2 -4.15871 9.68477 -2.20416 
830 2 -2.80388 12.2155 -2.0331 
831 1 -0.877618 13.0747 -0.0936635 
376 2 -9.53534 11.0861 2.50293 
375 2 -10.5466 9.36157 0.390616 
824 2 -5.85789 11.218 0.687218 
393 1 -8.52278 11.1856 -0.121729 
770 2 -5.10463 9.6401 2.37812 
821 2 -6.93745 11.2806 3.05776 
825 2 -4.4515 11.9075 2.81026 
787 2 -0.793534 10.6366 1.04535 
764 1 -3.09199 10.3353 9.69157 
823 1 -3.20054 10.5011 0.437536 
838 2 -3.83538 13.0288 0.522019 
839 2 -2.04311 12.5129 2.30314 
826 1 -2.52748 10.0465 3.40466 
757 1 -5.30405 9.97535 5.13589 
820 2 -8.73709 10.2929 4.5459 
487 1 -7.47885 9.78955 7.08134 
762 2 -4.54186 11.1568 7.32271 
760 2 -1.11494 10.0176 7.7869 
828 1 -0.808074 12.6066 4.7937 
822 2 -3.66434 12.3332 5.05519 
774 2 -2.53167 10.3916 5.93751 
827 1 -2.05593 12.6048 7.47858 
778 2 -0.072067 10.0594 5.47732 
126 2 3.12556 -10.3428 -8.91887 
112 1 0.7316 -11.9193 -7.54122 
69 2 3.56339 -12.2969 -7.29184 
64 1 2.17062 -13.0061 -5.07271 
129 2 2.79277 -10.2718 -6.3324 
508 2 9.51325 -10.3656 -1.1366 
128 2 7.39002 -11.3144 -6.11794 
70 1 4.99863 -11.7612 -4.75118 
131 1 5.33286 -10.3566 -7.58581 
400 2 7.98099 -9.36422 -7.75355 
72 2 9.27896 -9.9593 -5.00162 
50 2 1.72471 -13.6878 -0.977613 
117 1 1.65756 -10.424 -3.84137 
65 2 3.30033 -12.3108 -2.51362 
103 2 2.64763 -10.3669 -1.21652 
57 1 0.218649 -11.4837 -0.754144 
113 2 0.368853 -12.7238 -3.04228 
71 1 8.0129 -11.4948 -3.24626 
67 2 5.66595 -12.6579 -1.94309 
123 1 4.98301 -9.96014 -2.38269 
502 1 7.08308 -10.8601 -0.319833 
48 2 0.0538307 -14.2002 2.92633 
62 1 1.41559 -11.7559 3.5788 
497 1 3.83091 -9.67357 2.97314 
61 2 3.83569 -12.6456 3.22277 
60 2 1.95001 -10.5456 1.09126 
49 2 1.20367 -13.0475 1.19125 
68 1 3.8251 -12.5874 0.310686 
504 1 8.11775 -10.2395 3.95955 
489 2 5.81378 -11.672 2.22185 
503 2 6.32561 -9.26957 1.91915 
490 2 8.1665 -12.0425 1.85562 
51 2 6.45811 -13.3718 0.404589 
66 2 4.58711 -10.119 0.479144 
501 2 9.12959 -9.89683 1.45757 
531 2 1.81668 -9.48869 5.32586 
495 2 3.3061 -11.546 5.46107 
491 2 1.10074 -11.5958 6.45683 
494 2 2.60803 -10.1119 7.6217 
498 2 4.33192 -9.30496 5.70993 
496 2 5.60103 -10.975 4.59164 
493 2 4.89756 -11.1114 7.29072 
505 2 9.53434 -9.48879 6.14581 
492 2 0.520815 -10.6261 8.88235 
499 1 6.9733 -9.11812 6.83232 
427 2 2.55145 2.49503 -13.7799 
438 2 0.867451 5.08271 -13.6354 
132 1 2.26525 -7.37489 -10.0067 
205 2 0.352701 -5.52895 -10.8128 
405 1 2.6507 -4.87623 -12.0221 
409 2 4.53334 -6.7103 -11.6385 
411 1 4.68876 -5.662 -9.07729 
398 1 5.28082 -8.62032 -9.93658 
399 2 7.41076 -6.82558 -9.33058 
211 2 1.89483 -4.44921 -9.29184 
408 2 3.80875 -3.09335 -9.71735 
202 2 1.64161 -2.45775 -10.9862 
407 2 3.80779 -2.39201 -12.1341 
404 2 1.90597 -1.65182 -13.372 
423 1 3.31659 -0.339397 -10.374 
296 2 0.451626 -0.38059 -9.88247 
406 2 5.31418 -4.26878 -11.4782 
412 2 7.16271 -4.51154 -9.90187 
414 2 8.47441 -2.47366 -9.19692 
410 1 6.14547 -1.79351 -10.6222 
417 2 8.42008 -0.019973 -10.3787 
425 2 0.940953 3.3771 -11.9839 
426 1 4.11065 0.29512 -13.2083 
428 2 3.264 2.21362 -11.425 
424 2 1.45792 0.732755 -12.2105 
295 2 1.42024 1.95384 -9.86577 
430 2 4.92058 3.8255 -10.3765 
431 1 5.70695 1.1585 -10.1238 
421 2 6.90827 0.249374 -12.5357 
847 2 7.7761 2.70793 -9.16564 
437 1 8.60115 2.21957 -11.6882 
436 1 5.68797 2.87487 -12.7798 
420 2 10.0652 1.75142 -9.55007 
877 1 10.0904 4.46856 -9.02366 
429 2 3.10901 4.47405 -12.6053 
440 2 2.91674 6.90862 -12.2163 
434 1 2.30851 4.67816 -10.0786 
442 1 2.49698 8.03149 -9.63289 
364 1 0.300407 6.41159 -11.4738 
443 2 4.62556 6.23917 -10.347 
441 2 4.528 8.55663 -11.1738 
439 2 5.27127 5.57493 -12.5075 
865 1 7.46622 4.8764 -10.8079 
433 2 6.64323 7.30838 -11.1487 
133 2 0.388054 -6.88888 -7.68615 
130 2 3.49498 -8.20768 -7.68679 
134 2 4.23715 -8.93337 -5.11983 
195 2 2.06461 -7.93583 -5.6664 
213 2 2.49995 -6.16316 -7.4506 
194 1 1.43188 -5.44546 -5.09281 
125 1 4.57957 -6.21594 -5.58759 
403 2 8.88924 -4.96605 -8.35721 
402 2 8.60763 -6.93421 -7.03814 
139 2 6.14766 -7.6493 -7.48503 
137 1 6.95772 -8.73976 -5.11572 
136 1 7.89421 -5.78568 -4.63533 
401 2 6.69792 -5.33779 -7.20142 
840 2 9.78474 -7.59394 -5.12126 
842 2 11.915 -6.83581 -4.26834 
843 1 10.6863 -4.97157 -6.03825 
208 2 1.5229 -2.2265 -8.3232 
216 2 3.65264 -2.89923 -4.3721 
212 1 3.46838 -3.46957 -6.9647 
214 1 1.44247 -1.61729 -5.386 
209 2 0.251316 -4.12609 -7.45664 
418 2 4.34908 -1.01577 -8.07474 
413 2 6.07848 -2.97951 -8.24033 
215 2 5.88084 -3.98919 -5.40249 
416 1 8.17456 -2.98151 -6.58496 
217 1 5.47221 -1.38846 -5.68507 
849 1 9.031 -0.311102 -4.93708 
415 1 7.08427 -0.180469 -7.95417 
419 2 10.5631 -3.22985 -8.1408 
851 2 10.9039 -2.13224 -5.71018 
857 2 13.3819 -1.63328 -4.51037 
853 2 12.6186 -1.92595 -7.23363 
848 1 10.3791 -0.576003 -8.18425 
301 1 1.98694 0.380627 -7.70461 
304 2 2.09491 1.88968 -5.27123 
435 2 3.59602 2.52132 -8.79022 
305 1 1.06659 3.47427 -7.43291 
306 2 3.67824 3.69177 -6.7228 
303 2 4.28012 1.21298 -6.69171 
646 2 6.66235 1.26375 -5.68576 
432 2 5.95184 2.66702 -7.59225 
863 2 6.66314 3.75663 -5.55048 
864 1 9.09862 2.1524 -6.87738 
854 2 11.7822 2.29398 -7.95276 
852 1 12.0054 0.452513 -5.76904 
870 2 11.2084 3.88043 -6.23501 
860 2 10.5071 2.28726 -4.52453 
307 2 2.04843 4.56576 -5.06997 
369 2 0.363867 6.16743 -8.75216 
308 1 2.76764 6.15982 -7.51988 
370 2 0.816265 8.25184 -7.43673 
367 2 0.299027 5.95323 -6.20408 
806 1 2.54144 7.85876 -4.74093 
883 2 4.62247 7.58595 -6.37917 
867 1 5.53423 5.1399 -8.11955 
869 2 7.93331 6.5488 -8.83055 
868 2 8.00187 4.52837 -7.48793 
866 1 7.17249 6.7606 -6.11022 
444 1 5.74646 8.13572 -8.72556 
284 2 0.245377 0.510476 -3.96728 
878 1 10.1231 6.55214 -6.90356 
871 1 9.07321 4.62123 -4.74017 
872 2 11.5625 5.87223 -4.52477 
118 2 0.291746 -7.49686 -3.81185 
120 1 2.90832 -7.90553 -2.89704 
102 2 0.505126 -8.79349 -1.39701 
124 2 4.219 -6.0312 -1.26143 
121 1 1.24726 -5.79137 -1.65724 
201 2 3.41385 -5.04453 -3.38629 
135 2 7.66942 -8.89611 -2.55971 
138 2 5.57136 -7.31018 -3.15387 
566 2 7.71057 -6.52734 -2.04619 
565 2 8.43378 -8.38757 -0.311712 
119 1 5.81709 -7.82012 -0.334053 
140 1 5.81283 -4.41796 -2.67255 
567 2 10.1112 -5.54532 -3.04267 
510 1 10.1882 -8.36927 -2.81969 
570 1 12.4517 -6.37085 -1.66288 
127 2 1.00942 -9.33375 -8.43257 
568 1 9.69297 -6.04019 -0.248299 
198 2 1.54322 -3.42348 -3.20863 
626 1 3.39975 -3.44577 -0.846993 
199 2 0.682279 -2.96028 -0.587634 
200 1 1.97328 -0.915377 -2.18694 
218 2 4.7042 -1.64733 -2.66517 
645 2 7.37355 -2.48555 -3.78759 
569 2 8.33176 -4.10229 -1.94432 
644 2 6.60762 -2.2166 -1.24745 
648 2 8.97391 -1.59191 -2.27115 
653 2 7.9261 -0.124519 -0.248116 
841 2 9.69939 -3.26523 -3.89688 
844 1 12.5714 -4.07962 -3.85207 
850 2 11.2501 -1.29963 -3.25769 
573 1 11.1599 -3.44269 -1.26388 
846 2 13.2597 -1.5866 -1.58108 
657 1 10.7893 -0.483627 -0.299858 
845 2 13.8473 -3.91535 -1.23713 
219 2 3.53878 -0.128991 -4.33958 
631 2 2.75359 0.83425 -0.126847 
715 2 1.73709 3.04023 -0.437728 
652 2 4.21959 0.703798 -1.99973 
709 2 2.18415 1.86054 -2.83058 
733 1 4.23555 3.6689 -1.60276 
716 2 1.99255 4.17422 -2.76925 
735 1 4.78567 2.32752 -4.25175 
651 2 8.20365 2.18001 -3.92804 
649 1 6.73016 0.187988 -2.88 
650 2 6.11489 2.0367 -0.99432 
658 1 8.74951 2.35892 -1.06291 
736 2 6.83946 3.77495 -2.74997 
856 2 12.8848 3.22557 -4.46307 
647 2 10.3368 0.803522 -2.7647 
859 2 11.7584 1.92091 -1.06112 
742 1 11.0507 3.83472 -2.53668 
855 1 13.0692 0.716925 -3.01254 
203 1 -0.209183 -3.72098 -12.8484 
858 1 14.0528 3.07458 -1.59515 
811 2 3.23807 6.6945 -2.32821 
791 2 1.23278 8.11579 -2.23735 
712 1 1.24567 5.77738 -0.530764 
786 2 0.641615 6.04315 -3.67495 
793 2 2.57819 8.30767 -0.0239086 
734 1 4.60147 5.46905 -4.63007 
809 1 5.42071 8.3676 -3.6961 
814 2 5.01497 8.20878 -0.713255 
744 2 8.55511 5.09419 -1.85625 
738 2 7.13407 6.12399 -3.61534 
741 2 5.63854 6.04488 -1.86204 
737 1 7.79051 7.93496 -1.71107 
873 2 13.1995 5.37466 -2.59846 
875 1 10.7637 6.64337 -1.69536 
874 2 9.55437 7.15709 -4.0987 
743 2 9.95908 4.67155 0.0808129 
876 2 12.4907 4.7899 -0.260306 
532 2 3.09704 -7.44259 4.40806 
529 2 2.1071 -6.72146 2.36955 
552 2 4.09432 -5.45437 3.60026 
548 2 3.97932 -5.47911 1.04929 
527 2 1.05113 -8.99155 3.02597 
625 2 1.65799 -4.86573 0.958464 
105 2 0.277918 -6.973 0.519968 
122 1 2.71337 -8.14457 0.268178 
558 2 6.9752 -5.69378 4.19365 
547 2 6.22919 -8.41569 4.12624 
550 2 5.51566 -6.93584 2.32072 
551 1 8.27919 -7.1936 2.12307 
553 1 6.6023 -5.17579 0.356234 
559 1 9.77154 -5.27862 4.07199 
507 2 12.3221 -6.29872 4.2474 
506 1 10.5071 -8.33323 3.65782 
572 2 11.378 -6.46606 2.00881 
575 2 12.7975 -5.0501 0.575264 
528 2 1.71694 -4.73222 3.45244 
604 1 0.384422 -2.40375 2.17017 
630 1 3.47488 -3.03985 2.3934 
627 2 2.3776 -1.50729 0.458654 
606 2 1.90399 -2.05336 4.51955 
549 2 5.93405 -3.81621 3.05434 
557 2 8.15134 -4.26503 2.41958 
636 1 7.28388 -1.25492 2.90845 
555 2 5.72812 -2.82884 0.867645 
629 1 5.14255 -0.425491 0.411224 
571 1 8.68898 -2.53894 0.513502 
577 2 12.3542 -4.23716 2.98416 
574 1 10.3378 -2.23329 3.33493 
579 2 13.0806 -1.98031 3.75183 
576 2 10.5553 -4.10845 1.38863 
578 1 12.8913 -2.2908 1.05607 
628 1 2.85649 0.0147341 2.54632 
607 1 0.419423 0.238448 3.65173 
711 2 1.15187 2.19599 1.74385 
718 1 4.20054 2.85194 1.24844 
696 1 2.83151 2.69212 4.19078 
710 1 0.104637 0.225626 0.0745423 
692 2 -0.236861 3.01134 3.79453 
721 1 6.33973 3.68137 3.25814 
634 2 5.23974 1.07181 3.00246 
637 2 7.83558 1.40747 3.46281 
635 2 6.93619 1.77272 1.17752 
654 2 8.85666 3.04399 1.67455 
740 1 6.90413 4.59079 0.23966 
655 2 11.7392 -0.179756 2.46755 
633 2 9.74725 0.219183 4.35819 
723 1 9.38573 3.77351 4.11489 
661 2 11.3799 1.92559 3.81908 
656 2 9.34008 0.266019 1.73494 
659 1 11.3482 2.63545 1.25136 
660 2 12.905 3.55106 3.23446 
664 1 13.9561 1.01987 3.20932 
862 2 14.0755 3.25667 1.13225 
714 2 1.78802 4.39598 1.65602 
720 2 3.55106 5.02066 3.08013 
719 1 4.15722 5.86674 0.496872 
797 1 1.9941 7.20586 2.50995 
698 2 1.1516 5.0277 4.08557 
717 2 3.73876 7.39993 4.5475 
795 1 4.64366 8.70284 2.0749 
722 2 5.58511 6.27605 3.06195 
739 2 6.61545 7.25616 0.940016 
746 2 8.26414 5.63705 2.41142 
730 1 7.54627 8.38749 3.45255 
750 2 9.11595 6.98888 0.556657 
665 1 11.3454 5.59035 2.30855 
749 2 11.7629 7.63918 0.604292 
732 2 9.61746 6.53701 4.1861 
747 2 10.176 8.30327 2.28795 
530 1 0.485925 -6.97078 4.75557 
514 1 -0.0746617 -8.7678 7.15869 
533 2 2.66586 -7.54992 6.87958 
534 1 2.49578 -4.74205 5.96393 
516 2 1.04167 -6.19929 8.00075 
538 2 3.70775 -6.30868 8.56282 
707 1 6.43959 5.63996 10.5471 
536 2 8.37657 -7.52189 5.20859 
535 2 4.56644 -8.63908 8.22005 
539 1 5.24456 -6.55064 6.18114 
554 2 7.78406 -5.74302 6.99736 
537 1 6.6452 -6.89813 9.17771 
500 2 8.91249 -7.74692 8.00943 
560 1 10.78 -6.72002 6.53249 
543 1 9.42344 -5.3355 9.20669 
522 1 2.84348 -3.75912 8.98619 
594 1 0.473988 -2.24197 6.94896 
597 2 2.40999 -1.05571 8.46485 
609 2 3.62753 -2.33758 6.72303 
612 2 4.46214 0.0379404 7.48456 
614 1 4.74093 -1.0845 4.65239 
556 1 7.71807 -3.43676 5.30032 
540 1 5.64829 -4.27344 7.85413 
541 2 5.03205 -3.79293 5.18051 
639 2 7.66622 -0.575384 5.47595 
611 2 6.04557 -1.73359 6.81658 
546 1 8.25356 -2.50543 8.30328 
562 2 9.81918 -4.26048 6.80394 
563 1 12.0132 -3.5791 5.62585 
581 1 11.9682 -0.414661 5.64414 
580 2 9.74604 -1.84239 5.82205 
561 2 9.52912 0.146303 7.0022 
564 1 11.2267 -2.11406 8.11179 
610 1 2.19991 0.246822 6.04158 
592 2 0.496618 0.67826 8.4662 
693 1 0.588629 2.74527 6.51668 
697 2 3.37046 2.87044 6.90502 
700 2 2.40959 4.37021 8.76256 
618 1 7.13502 0.464695 8.23015 
619 2 5.32869 2.35422 8.09859 
632 1 5.62649 1.69389 5.49637 
726 1 7.38016 4.05721 6.995 
640 2 8.20569 1.83515 5.81956 
643 2 11.6442 4.59386 5.24649 
641 1 11.7604 1.2671 8.33079 
662 2 10.4476 2.36417 6.11135 
638 2 9.23195 2.26215 8.36911 
642 2 10.662 4.16753 8.14539 
663 2 12.8862 2.45641 5.67958 
695 2 2.03788 4.88851 6.36077 
779 1 1.1892 7.49063 5.35909 
704 1 3.42739 7.16813 7.51419 
675 1 0.261914 6.24508 8.12874 
782 2 0.983551 8.83347 7.58081 
703 2 4.76459 4.69281 8.3496 
699 1 4.68807 4.86727 5.49383 
724 2 6.1543 6.55348 7.8417 
727 2 7.3908 5.62228 4.7997 
725 2 6.00821 7.24997 5.51479 
751 2 5.86329 8.89048 7.43729 
729 1 8.37243 7.79442 6.63093 
706 2 8.71306 5.73894 8.74577 
728 2 9.67263 5.42665 6.3608 
731 2 9.86439 8.95355 4.75786 
520 2 2.03323 -8.34483 9.16439 
521 1 1.58112 -6.07672 10.727 
525 1 3.86737 -5.09009 12.8156 
519 2 4.25548 -7.15437 10.7284 
702 2 7.64495 7.83362 9.2974 
523 2 4.92506 -4.81502 10.3282 
544 2 6.52655 -6.04819 11.6967 
596 2 0.398427 -4.18342 8.94967 
517 2 1.93705 -3.48026 11.6161 
465 2 0.0872382 -2.35275 12.9452 
591 1 0.197783 -1.67022 10.237 
466 2 1.55647 -0.366044 13.2393 
600 2 2.73516 -1.06632 11.0069 
524 2 4.3109 -2.82011 11.6314 
542 2 7.23462 -4.08016 10.2968 
615 1 5.06755 -1.71724 9.49882 
526 2 6.50077 -3.53775 12.5261 
601 1 4.77438 -0.741287 13.2564 
620 1 7.77454 -1.38042 11.0884 
621 2 9.68685 -0.180436 9.42036 
545 2 9.93702 -2.72136 10.3508 
593 2 0.885248 0.998168 11.1636 
599 2 3.25823 1.11887 11.9796 
613 1 2.96992 1.48423 9.30847 
678 1 0.122756 3.14622 9.44041 
681 2 2.20532 3.41126 11.0619 
705 2 4.88404 7.8984 9.66543 
679 1 4.47159 3.24006 13.0224 
616 1 5.7499 0.997695 10.9524 
617 2 7.1155 3.18831 9.50765 
701 2 4.65901 3.40445 10.4012 
623 2 7.03616 3.31953 11.8653 
622 2 8.55321 1.5226 10.6346 
624 2 9.12265 4.02286 10.2042 
682 2 0.624013 5.32479 10.6809 
684 1 3.34308 5.8458 10.7022 
837 2 2.08348 8.02821 9.68229 
685 2 0.0319088 7.47883 11.0423 
683 2 2.10954 5.00017 12.9681 
509 1 11.2774 -8.6347 0.226849 
861 1 13.982 0.510944 0.0146925 
598 2 2.67992 -2.55627 13.7083 
602 2 3.18085 1.11295 14.3629 
451 1 0.698676 -4.78733 13.6486 
680 1 0.970961 2.60283 13.3186 
879 2 4.13618 10.4359 -9.08169 
804 2 3.0905 9.26331 -7.26205 
882 2 3.09178 11.9081 -7.05408 
366 2 1.24592 10.4182 -8.46716 
810 2 1.35488 10.3359 -5.9801 
391 1 0.117268 12.6748 -6.94852 
880 1 5.58746 10.1036 -6.52714 
884 1 8.24817 9.50694 -4.59372 
836 1 1.90854 12.7225 -4.2598 
808 2 3.29801 9.53196 -2.41509 
807 2 3.71015 10.598 -4.70312 
805 2 1.3109 10.2135 -3.53361 
818 1 4.1265 12.0968 -2.10771 
790 1 1.25044 10.9442 -0.813519 
834 2 1.66617 13.4638 -1.52244 
819 2 6.04462 11.055 -3.8826 
817 1 8.38116 10.8903 -2.04276 
815 2 5.98037 10.2517 -1.55237 
812 2 10.2131 9.11841 -2.85254 
748 2 9.99481 9.05666 -0.391846 
881 2 8.26266 8.73733 -7.39087 
796 2 3.89387 10.4484 0.0255041 
799 2 3.31436 12.8319 0.334814 
794 2 2.04534 9.92263 1.53666 
833 1 1.01796 12.2305 2.19925 
798 1 3.95025 11.9022 2.84862 
776 2 0.13845 9.48815 3.07674 
780 2 2.57156 9.52559 3.88514 
816 1 7.65165 9.88943 0.933859 
813 2 5.6463 12.114 0.440616 
803 2 6.53584 11.0015 3.14169 
745 2 9.24209 10.5473 3.09667 
777 2 1.76259 11.5046 4.69007 
829 2 3.61059 11.8666 6.14378 
784 1 1.11182 11.7811 7.46557 
783 2 2.59629 9.6869 6.12623 
785 1 3.65431 10.1696 8.61233 
802 1 7.90654 10.7434 5.64159 
801 2 5.7082 12.3961 4.87626 
781 2 5.67382 11.3803 7.11952 
800 1 4.9946 9.76178 5.04983 
768 1 0.300283 9.97338 10.0656 
