ITEM: TIMESTEP
40000
ITEM: NUMBER OF ATOMS
884
ITEM: BOX BOUNDS pp pp pp
-2.7057867000000002e+01 2.7057867000000002e+01
-2.7057867000000002e+01 2.7057867000000002e+01
-2.7057867000000002e+01 2.7057867000000002e+01
ITEM: ATOMS id type x y z 
56 2 -3.37568 -10.6517 -9.51287 
52 2 -1.09541 -9.96859 -9.63489 
73 2 -8.88527 -11.0464 -4.80243 
77 2 -4.92809 -11.3637 -7.3444 
75 1 -6.05144 -11.4598 -5.04791 
74 1 -7.92862 -9.84498 -6.8742 
2 2 -4.35666 -11.945 -2.97434 
53 1 -2.02407 -11.9876 -7.50346 
78 1 -3.83572 -13.1825 -5.39441 
76 2 -3.53622 -10.6184 -4.95189 
84 2 -1.24193 -10.2193 -5.33443 
98 1 -3.00054 -9.12186 -7.26188 
59 2 -0.301856 -9.58466 -7.32278 
6 2 -0.018512 -14.4613 -2.24545 
12 2 -9.41385 -10.0803 -2.47129 
63 1 -7.08898 -11.3946 -2.3936 
80 1 -4.84265 -9.26188 -2.78621 
85 1 -1.74023 -10.0991 -2.66356 
83 1 -0.993815 -12.7176 -4.26728 
5 1 -2.25359 -13.0328 -1.42613 
3 2 -3.88835 -10.8277 -0.725061 
79 2 -7.55886 -9.14053 -3.99096 
11 2 -10.4996 -9.94838 1.80821 
19 1 -6.86903 -9.29888 3.06351 
15 2 -8.90693 -11.2457 3.26532 
18 2 -6.44492 -11.8954 2.2702 
16 1 -8.54546 -11.0697 0.262895 
17 2 -6.03041 -10.0679 0.435243 
1 1 -5.47274 -12.8176 -0.100765 
4 2 -2.87289 -13.074 1.10664 
8 1 -4.17658 -12.8173 3.9094 
21 2 -1.50502 -12.1189 2.89573 
22 1 -3.87632 -10.5892 2.15674 
7 1 -1.28805 -10.6286 0.486876 
445 2 0.0302527 -13.3158 0.522002 
10 2 -6.39782 -11.8094 4.9056 
25 2 -8.54332 -10.2677 5.44485 
38 2 -6.41665 -9.81275 6.33004 
27 2 -8.24145 -9.10295 8.00607 
26 2 -5.65636 -9.91364 8.61596 
23 2 -4.787 -10.0823 4.59099 
9 1 -4.33893 -11.5884 6.7908 
456 2 -1.79846 -10.7384 7.64895 
24 1 -2.06285 -10.0068 4.84268 
453 1 -1.28643 -12.7964 5.48854 
468 2 -3.29783 -10.3196 9.46554 
472 1 -0.243143 -9.21072 9.36313 
398 1 -0.691761 2.23364 -13.8462 
69 2 -0.948015 -2.582 -14.311 
126 2 -2.19441 -0.203348 -13.6348 
92 2 -9.11377 -4.95586 -9.28276 
55 2 -5.13592 -6.63312 -10.34 
93 2 -7.50125 -5.89848 -11.0367 
110 1 -6.07949 -4.32105 -9.18843 
58 2 -3.43209 -8.19096 -9.76469 
113 2 -1.99382 -6.61767 -10.8906 
116 2 -3.47595 -4.71811 -11.0813 
50 2 0.0749955 -8.11633 -11.0467 
179 2 -10.6667 -0.235261 -9.82346 
108 2 -8.56593 -0.958314 -11.1868 
107 2 -7.87214 -3.28676 -10.9666 
109 2 -5.73466 -4.43977 -11.9042 
111 1 -6.32626 -1.92544 -12.7575 
106 1 -6.27101 -1.38819 -9.68049 
127 2 -4.37336 -0.394052 -12.1083 
112 1 -3.50635 -2.98624 -13.2526 
115 1 -3.79701 -2.17054 -10.1926 
117 1 -0.945189 -3.85237 -10.3957 
129 2 -1.29535 -1.77474 -12.1125 
195 2 -1.30663 -1.12107 -9.65506 
141 1 -6.69857 1.07838 -11.5488 
204 2 -7.73276 3.08697 -9.86267 
205 2 -5.437 3.3369 -10.7652 
184 2 -8.51611 0.800147 -9.33115 
133 2 -4.30144 0.872754 -9.90576 
132 1 -3.31099 2.22 -12.2182 
130 2 -1.05163 0.65942 -11.6591 
213 2 -1.95016 1.40431 -9.54301 
211 2 -3.20961 3.45897 -9.65653 
411 1 -0.73831 3.60529 -10.8618 
121 1 0.140448 -2.39258 -5.36237 
203 1 -7.07701 5.7519 -10.2489 
405 1 -3.8789 5.58361 -11.195 
409 2 -2.20491 4.40804 -13.2721 
406 2 -1.246 6.15658 -11.9944 
408 2 -1.50704 5.77509 -9.42892 
407 2 -2.46116 8.10732 -10.4123 
90 2 -9.72406 -6.6408 -7.12652 
94 2 -11.9839 -6.34623 -5.83825 
144 1 -10.071 -8.59507 -4.85815 
158 1 -9.73354 -5.17858 -4.63063 
95 2 -4.90397 -7.14877 -8.05045 
91 1 -7.40481 -7.20574 -8.48772 
82 1 -5.34958 -8.33124 -5.72052 
89 2 -7.84271 -6.96583 -5.75448 
96 1 -5.71731 -5.23313 -6.0662 
162 2 -8.21576 -4.49005 -6.97811 
57 1 -0.759224 -7.22315 -8.58552 
99 1 -3.03007 -5.09767 -8.51021 
88 2 -2.64862 -8.34472 -4.73771 
101 1 -0.220719 -7.32183 -5.70451 
97 2 -3.08696 -6.58174 -6.22674 
102 2 -0.655012 -4.65159 -6.988 
159 1 -11.0847 -4.13403 -7.31839 
157 2 -11.8979 -1.87018 -8.48168 
161 1 -9.16327 -1.88974 -5.54738 
160 2 -11.831 -1.88373 -6.06806 
156 2 -12.1472 -4.06131 -4.68669 
182 1 -9.11647 -2.24461 -8.67431 
181 2 -6.8333 -2.49757 -6.90402 
169 2 -4.97741 -2.41265 -5.09671 
190 2 -6.59541 -0.726528 -5.29149 
192 1 -4.60571 -0.396158 -7.20947 
167 2 -7.25135 -3.74881 -4.66735 
186 2 -7.64467 -0.16375 -7.37353 
191 2 -4.42653 -0.103966 -4.33124 
114 2 -4.40217 -3.08417 -7.39185 
171 1 -2.69278 -4.0767 -5.27193 
118 2 -2.00875 -2.53943 -7.60252 
196 2 -2.66643 -1.45753 -5.36954 
264 2 -13.1271 0.155203 -5.8901 
188 2 -10.4213 2.66738 -8.72166 
183 1 -10.6289 0.335803 -7.24258 
180 2 -12.4002 2.63008 -7.14408 
267 1 -10.1415 2.93684 -5.69035 
265 2 -12.6792 2.44436 -4.74066 
187 2 -8.39023 0.83929 -5.12943 
185 2 -8.19262 2.31134 -7.4956 
189 2 -6.22026 1.43196 -8.68264 
193 1 -6.11975 2.06124 -5.82182 
207 1 -5.80168 4.1919 -8.14131 
271 2 -7.48209 4.37556 -5.84697 
297 2 -3.79299 3.80038 -5.89128 
209 2 -3.84483 2.21331 -7.71581 
194 1 -1.4609 0.209665 -7.17638 
210 2 -3.07905 1.50513 -5.5801 
212 1 -1.20495 3.48841 -7.8599 
214 1 -0.84862 3.00153 -4.81587 
288 2 -11.1858 4.84491 -7.39623 
291 2 -10.8957 7.35735 -6.51389 
292 2 -9.46593 5.69488 -5.78201 
290 1 -9.19002 8.77216 -4.97267 
269 1 -12.1705 5.134 -4.88572 
206 2 -8.73901 4.48656 -8.04813 
202 2 -4.86418 6.86247 -9.09386 
293 1 -7.57587 6.98363 -7.31694 
296 2 -4.80682 6.48307 -6.60935 
424 2 -5.24255 8.70781 -7.52757 
299 2 -6.09168 8.21318 -5.09243 
301 1 -2.1505 5.70981 -5.3922 
208 2 -3.43333 5.21727 -8.11484 
418 2 -0.195338 6.48837 -7.25905 
423 1 -2.47065 7.90797 -7.76066 
435 2 -1.12245 8.22103 -5.21691 
295 2 -3.73695 8.15504 -5.07544 
143 1 -10.8532 -8.59463 -0.612121 
142 1 -12.0596 -6.76326 -3.25426 
145 2 -9.46316 -7.16753 -2.5002 
220 2 -11.6719 -5.77562 -0.198941 
225 2 -10.4974 -4.88127 -2.03588 
304 2 -0.688293 5.43642 -3.04009 
146 1 -7.4742 -8.61178 -1.26406 
148 2 -4.95776 -6.73129 -1.51419 
149 1 -6.82009 -6.30636 -3.26471 
164 1 -6.00641 -4.54414 -0.554381 
165 2 -8.16922 -4.10419 -2.35754 
166 2 -4.88198 -4.31699 -3.36279 
307 2 -0.446382 6.89778 -0.929066 
81 2 -5.72962 -9.39983 -8.71267 
104 2 -1.98316 -6.10224 -3.86048 
170 2 -4.21141 -6.69663 -3.72686 
100 2 -0.23226 -7.84419 -2.90461 
154 2 -2.4875 -7.46175 -2.13716 
173 1 -2.93002 -4.72627 -1.55929 
242 1 -13.4346 -1.77107 -3.8939 
221 2 -12.7183 -4.12588 -2.12314 
163 1 -10.6131 -2.61213 -2.9941 
244 2 -12.6281 -0.712293 -1.57666 
247 1 -10.0882 -0.405242 -0.825731 
222 1 -11.9155 -2.88974 0.0383248 
250 2 -8.48113 -0.663024 -3.13599 
168 1 -6.34714 -2.01556 -2.70714 
174 2 -4.46028 -2.2831 -0.761255 
253 2 -7.38569 -0.078675 -0.886886 
251 1 -8.75765 -2.88614 -0.0168276 
172 2 -3.38648 -2.23333 -3.10122 
176 2 -1.02867 -3.24881 -3.08393 
177 1 -1.88345 -1.83221 -0.800753 
274 2 -4.11504 -0.0225329 -1.85243 
197 1 -1.80487 0.11762 -3.31768 
246 2 -13.627 0.897367 -3.30567 
266 2 -13.4002 3.72587 -2.74768 
248 1 -11.0002 0.45742 -3.96668 
268 2 -11.0003 3.28583 -3.31325 
273 2 -9.68333 4.42571 -1.51791 
249 1 -11.9284 2.00444 -1.1547 
256 2 -8.92169 2.10899 -0.0857909 
272 1 -8.62156 1.94918 -2.66599 
276 2 -6.22425 0.758347 -3.24945 
279 2 -6.6173 3.5175 -3.53593 
278 2 -5.88776 2.07492 -1.26838 
270 2 -8.8645 4.41142 -3.78706 
277 2 -5.10698 4.56922 -1.51087 
275 1 -3.94751 2.55703 -3.33374 
284 2 -1.63152 3.16171 -2.04618 
283 2 -2.07937 0.912968 -0.693019 
285 2 -3.56649 2.59745 -0.72024 
345 2 -9.22768 6.60121 -0.65074 
339 1 -12.0226 5.96782 -1.84382 
355 2 -11.7379 7.67863 -4.29066 
342 2 -9.59852 6.62871 -3.18102 
356 1 -10.6557 8.82413 -2.0649 
365 1 -5.08861 7.16851 -1.01207 
360 1 -7.5007 8.30372 -2.1591 
280 2 -7.23528 5.63652 -2.22343 
294 2 -7.48903 6.4925 -4.36802 
298 1 -5.10451 5.74465 -4.12701 
286 1 -2.54718 5.2485 -0.461569 
305 1 -2.54276 7.64875 -2.67494 
302 2 -3.09274 5.02032 -2.86555 
228 1 -8.91282 -5.99978 -0.0662555 
338 2 -13.1864 4.10937 -0.117323 
64 1 -1.31527 -5.01692 -13.0442 
223 2 -12.5922 -4.79992 1.88462 
13 1 -11.1099 -7.12303 1.98639 
28 2 -9.60856 -8.80401 3.73899 
233 2 -7.27257 -4.5899 1.73136 
32 2 -8.45055 -6.61044 2.81041 
235 1 -5.86597 -5.91487 3.77743 
147 1 -6.29178 -7.14448 0.98456 
14 2 -8.73388 -8.5077 1.23841 
467 2 -2.39256 -8.75371 11.0308 
20 2 -4.47302 -8.09583 3.01954 
583 2 -0.928213 -6.34882 2.57033 
150 1 -3.53938 -5.51204 1.49828 
153 2 -2.22931 -8.25784 2.35452 
151 1 -0.598845 -7.47343 0.161477 
230 2 -10.0591 -4.28994 1.88575 
226 2 -13.2915 -2.42843 2.48239 
224 1 -10.7206 -1.52373 2.33585 
245 2 -12.6611 -0.179808 0.83344 
309 1 -13.0303 -0.166423 3.59497 
227 1 -11.8586 -4.04436 4.29526 
237 2 -5.93609 -3.17043 3.33489 
231 2 -8.27212 -2.37899 2.59735 
252 2 -6.23005 -2.12378 0.902882 
257 2 -6.02235 -0.765359 2.9327 
259 1 -4.64747 0.412754 0.788565 
238 2 -3.68539 -4.18824 4.10405 
175 2 -1.05045 -4.38489 0.532208 
236 2 -1.42022 -4.10269 3.07446 
258 1 -3.49611 -2.56402 1.79314 
261 2 -2.09613 -0.247676 1.72099 
686 2 -1.92824 -1.68648 3.79714 
608 2 -0.568234 -2.29109 1.66123 
691 2 0.0664112 -0.23663 3.31679 
243 2 -10.727 1.226 1.39417 
343 1 -10.6699 4.22935 0.802935 
324 1 -12.997 2.53779 2.01514 
330 2 -11.1963 4.11164 3.30216 
328 1 -10.3593 1.48847 3.98357 
368 2 -4.67792 8.76017 1.30398 
254 1 -8.30614 0.00875252 1.80942 
255 2 -6.82169 1.96006 0.83849 
327 2 -8.48837 2.92788 2.3283 
337 1 -5.68813 2.55395 3.22991 
282 2 -5.03397 3.59081 0.914059 
332 2 -7.7938 1.23933 4.26925 
260 2 -3.80664 0.0348256 3.41862 
713 2 -0.0853377 2.13169 2.65208 
263 1 -2.62321 2.3625 2.11346 
708 2 -0.67365 2.67733 0.0846992 
287 2 -1.19938 4.46315 1.86821 
349 2 -3.3104 4.46385 3.74618 
689 2 -1.71351 0.981654 4.44102 
325 2 -12.8146 5.33142 2.00759 
340 1 -10.9831 7.28438 1.2384 
346 2 -9.20413 5.58904 2.58046 
382 1 -11.1706 6.63363 4.29968 
826 1 -0.176198 4.03445 10.1449 
281 1 -7.52792 4.51381 0.135943 
350 2 -6.74243 5.19281 2.78352 
347 1 -7.35839 7.25096 1.03505 
344 2 -8.89804 8.24226 3.1087 
352 1 -5.94231 7.80028 3.69421 
367 2 -2.7425 7.94107 0.275901 
786 2 -1.27113 6.82342 1.64383 
351 1 -4.246 6.08375 1.82636 
354 1 -2.76336 8.48318 3.33971 
788 2 -1.36497 6.06321 4.03629 
29 2 -10.5004 -6.57636 4.62098 
30 2 -10.3459 -5.43623 6.49573 
229 1 -8.67298 -4.27842 4.39058 
39 1 -6.3333 -7.21132 7.95818 
36 2 -7.73091 -4.98632 7.09073 
33 2 -9.10588 -6.79137 8.15835 
31 1 -8.19141 -7.36728 5.59083 
37 2 -5.17732 -7.96553 5.53957 
35 1 -4.25855 -5.37689 6.80633 
155 1 -2.69512 -6.75978 4.61256 
460 2 -1.10186 -8.18253 6.83669 
470 2 -1.64475 -6.05091 7.09107 
471 1 -3.58263 -8.57499 7.63036 
41 2 -11.8641 -3.2469 7.13799 
310 2 -13.5299 -2.40094 5.13952 
315 1 -10.7924 -1.3706 5.17413 
311 2 -12.8868 -1.05447 6.94842 
312 1 -10.2905 -1.0133 8.44583 
234 2 -9.48821 -3.22957 6.54461 
240 2 -6.09552 -3.53886 5.90922 
318 2 -7.74034 -2.30401 7.80528 
232 1 -7.90023 -1.30836 5.11399 
321 2 -5.91884 -0.892143 7.04062 
667 1 -1.92243 -3.47652 6.06617 
239 2 -4.45228 -1.88228 4.88018 
241 2 -4.04277 -2.71707 7.62087 
671 1 -3.04501 -0.297481 6.67335 
669 1 -0.485856 -1.82383 8.29986 
690 2 -0.480088 -0.930048 5.65246 
314 1 -11.7038 1.47041 6.96495 
323 2 -12.8009 2.47683 4.59949 
331 2 -11.3162 4.01214 5.87885 
326 2 -9.33458 3.23708 7.2093 
373 2 -11.0346 4.1598 8.38433 
313 2 -9.16679 0.674626 6.42371 
316 1 -7.54713 0.578233 8.8116 
262 2 -5.55292 0.366977 5.09828 
333 1 -6.87246 2.31456 6.43498 
329 1 -8.88146 3.98432 4.72388 
317 2 -4.92748 1.26732 7.87991 
320 2 -7.08788 3.32766 9.04915 
769 2 -0.583846 0.738095 7.51008 
772 1 -1.52668 3.06335 7.57511 
335 1 -3.68971 2.36248 5.43396 
773 2 -1.33119 3.43187 4.62415 
336 1 -4.53188 4.00703 8.10776 
377 2 -9.77156 6.05845 6.69845 
385 2 -9.31643 8.50966 5.72366 
379 2 -9.36467 7.941 8.20786 
378 2 -7.6079 4.83361 7.16193 
334 1 -5.63471 4.95312 5.22901 
348 2 -8.20564 6.51229 4.69705 
387 1 -7.01945 7.57969 6.84003 
771 2 -2.62833 4.9641 6.09514 
353 2 -3.80353 6.69719 4.767 
792 1 -1.61705 7.8132 6.24452 
386 2 -3.94422 6.74451 7.37706 
476 2 -0.0748001 -7.42399 11.4784 
45 1 -7.74872 -6.16683 10.3543 
47 2 -5.40363 -5.53891 11.4406 
34 1 -5.0013 -8.1659 10.5995 
469 2 -4.18326 -5.95245 9.34387 
473 2 -2.01592 -7.10012 9.3014 
483 1 -2.71095 -6.11061 11.9771 
42 1 -9.44071 -4.12212 9.18428 
43 1 -6.01899 -4.0996 9.11942 
44 2 -6.22999 -2.91438 11.7918 
46 2 -8.14502 -1.93924 10.2389 
319 1 -5.37962 -1.22842 9.79177 
484 2 -4.89365 -1.53254 13.3918 
666 1 -2.17545 -4.3006 9.18758 
475 2 -0.79059 -4.42583 11.7422 
485 1 -3.63345 -3.3512 11.7604 
756 1 -0.987565 -1.52557 11.3434 
753 2 -2.83567 -1.867 9.57597 
754 2 -3.7033 -0.397944 11.5369 
825 2 -2.14427 5.40129 11.8356 
40 2 -9.33722 0.0876569 10.8467 
374 2 -9.74586 1.98689 9.28224 
322 1 -6.82455 -0.182123 12.2232 
375 2 -7.99807 2.18721 10.8539 
752 1 -5.13823 1.88973 10.6268 
376 2 -6.63251 2.44288 12.7524 
820 2 -4.43917 1.20911 13.1742 
822 2 -0.211417 4.00529 12.9068 
755 1 -2.67328 0.878764 9.4257 
757 1 -1.55361 1.75509 11.9389 
770 2 -2.88362 3.50652 10.0884 
821 2 -3.98313 3.58696 12.2585 
380 1 -9.02559 5.36548 9.3764 
381 2 -6.20751 5.82346 8.92324 
393 1 -6.64604 4.71674 11.4221 
396 1 -5.04749 8.29837 9.4183 
392 2 -7.48507 7.84495 9.87772 
839 2 -0.283957 6.72071 11.2869 
823 1 -1.87792 6.05574 8.89003 
824 2 -4.12295 5.69314 10.5046 
838 2 -2.68965 7.80418 10.76 
831 1 -0.497704 8.7983 9.64179 
152 1 -3.66098 -8.31319 0.193383 
487 1 -2.53332 -0.438017 13.97 
486 2 -1.5021 -2.96712 13.648 
439 2 -2.61151 13.3136 -4.30973 
427 2 -5.18929 11.0453 -8.18436 
289 2 -7.1582 9.89861 -6.69722 
422 2 -6.16869 12.2514 -6.51289 
425 2 -4.85785 10.3298 -5.71139 
426 1 -2.47526 10.8007 -8.80028 
428 2 -2.42641 10.13 -6.1944 
436 1 -0.764833 12.5725 -6.22601 
429 2 -3.5768 12.2312 -6.47655 
359 2 -8.48037 10.7207 -1.70685 
364 1 -5.71969 11.7018 -1.86538 
357 1 -7.18087 10.8788 -4.11748 
438 2 -5.05823 12.5918 -4.39537 
300 2 -5.05278 9.14844 -3.04774 
361 2 -6.42947 9.66065 -0.194472 
443 2 -0.730658 12.0978 -3.11789 
442 1 -2.37088 12.3866 -0.774208 
308 1 -0.896784 9.70194 -0.997714 
369 2 -3.71391 9.90904 -1.00569 
434 1 -3.10503 10.7576 -3.55187 
430 2 -0.421851 10.2908 -4.64299 
440 2 -3.93818 13.5905 -2.35682 
441 2 -1.28864 14.3764 -2.2312 
404 2 -4.49006 9.25113 -9.73627 
341 1 -9.32061 9.6387 0.531554 
390 2 -9.13659 11.0011 2.92873 
363 1 -7.75237 12.0758 0.56778 
358 2 -6.91081 9.87285 2.29325 
371 1 -4.88195 11.527 1.01753 
362 2 -6.77823 12.1132 3.16805 
836 1 -0.337434 12.7609 5.87043 
370 2 -2.5101 10.3146 1.33476 
804 2 -0.492951 11.7729 1.14282 
366 2 -2.4757 12.8791 2.02623 
810 2 -1.40475 11.31 3.40696 
372 1 -4.43383 10.7546 3.7137 
882 2 -0.28591 13.4322 3.34432 
879 2 -0.663885 14.2684 0.651443 
395 2 -4.88212 10.9046 8.52957 
389 2 -5.28889 11.569 6.03633 
383 1 -7.41549 10.2076 4.95423 
394 1 -7.46588 10.2183 8.00241 
388 1 -4.56339 9.15583 6.20857 
397 2 -2.91013 11.7119 7.1758 
391 1 -3.17373 13.0727 4.87223 
832 2 -0.519051 10.4181 7.25782 
835 2 -2.23494 10.411 5.41214 
384 2 -10.9594 9.34048 3.09481 
830 2 -2.69431 9.41569 8.25213 
49 2 1.24906 -9.28419 -9.24032 
48 2 0.645564 -11.3781 -8.60582 
54 2 0.732054 -12.071 -6.07574 
491 2 3.35428 -11.7607 -4.80482 
62 1 2.41337 -9.9587 -6.74934 
531 2 3.74804 -9.47095 -4.41638 
493 2 7.54629 -10.7201 -5.30359 
495 2 5.0786 -10.6257 -6.31613 
446 1 2.45125 -14.0188 -1.19776 
512 2 1.68745 -12.9444 -3.57244 
86 1 1.11358 -10.1303 -3.98826 
514 1 3.18487 -10.8918 -2.05641 
61 2 4.38432 -9.40886 -8.62267 
511 2 0.6186 -9.55092 -1.28868 
516 2 4.56341 -9.29864 -0.107519 
518 2 4.5355 -12.3549 -0.0573959 
492 2 4.62867 -12.9662 -2.51335 
494 2 5.55482 -11.1134 -3.92261 
535 2 7.6701 -9.72496 -2.97147 
520 2 6.1163 -10.9773 -1.43742 
519 2 8.49669 -10.4994 -0.523539 
87 2 0.212409 -11.9968 -1.81251 
455 2 0.540557 -13.6592 3.25417 
457 2 0.371716 -11.2848 4.13616 
587 1 2.39916 -9.37701 4.02178 
449 2 2.9611 -12.2118 3.85269 
448 2 0.93384 -11.3916 1.9713 
513 2 3.53832 -11.1077 1.78784 
447 2 2.57417 -13.4773 1.65591 
585 2 -0.0797293 -9.11381 2.40495 
451 1 7.31341 -12.1416 4.44091 
452 2 5.08033 -10.8296 3.88144 
517 2 7.16755 -9.54904 3.69664 
450 2 5.05679 -12.8652 2.50007 
521 1 6.34293 -10.741 1.35165 
525 1 9.33159 -10.7568 2.29264 
454 2 1.60051 -12.7248 5.73076 
458 1 0.717563 -10.3666 6.62006 
463 2 2.54514 -9.76639 8.43677 
461 1 4.02876 -11.3399 6.31773 
598 2 8.96692 -9.55485 5.27114 
465 2 6.53653 -10.1872 6.12263 
515 2 1.95849 -11.749 0.0249638 
544 2 11.0342 -9.84547 0.382343 
128 2 2.98853 -1.47415 -14.4109 
131 1 0.612068 -0.580916 -13.5403 
72 2 5.14821 -0.665051 -13.5458 
400 2 2.90916 0.93684 -13.8558 
178 1 0.210608 -5.50558 -1.85059 
68 1 2.91101 -7.46091 -10.2797 
67 2 3.2981 -5.52802 -12.2544 
65 2 0.696125 -5.87982 -11.2436 
66 2 3.67041 -5.6696 -8.69739 
103 2 1.1208 -5.58024 -8.89998 
51 2 5.06653 -7.42311 -11.9712 
489 2 5.80262 -7.6533 -9.40877 
490 2 7.55914 -6.63113 -11.1343 
502 1 5.45811 -4.99476 -10.6726 
501 2 8.1838 -4.78396 -9.71446 
123 1 2.41193 -3.74924 -10.3764 
138 2 2.99054 -1.08629 -9.0879 
134 2 0.812984 -1.72604 -11.0682 
137 1 3.18829 -0.518858 -11.6777 
70 1 1.38425 -3.60809 -13.1226 
135 2 4.57057 -2.36435 -10.3709 
71 1 4.58225 -3.2322 -13.0795 
565 2 6.67417 -2.84492 -9.49606 
508 2 7.41549 -3.40093 -11.8664 
566 2 5.18508 -0.528854 -8.91337 
510 1 6.51714 -0.68198 -11.3003 
509 1 9.26077 -2.21924 -10.1801 
136 1 3.99152 1.81067 -9.77909 
139 2 1.35189 1.7769 -12.026 
125 1 0.808488 0.867265 -9.50384 
402 2 3.29244 3.09364 -12.7306 
401 2 2.09843 3.69121 -10.7328 
840 2 4.93577 1.50468 -12.3974 
567 2 6.82912 1.6155 -9.65493 
842 2 7.39442 2.01801 -12.0645 
843 1 5.62498 3.8237 -11.0695 
844 1 8.46043 4.07958 -9.81231 
570 1 9.46513 1.10437 -10.4563 
399 2 1.04084 4.19627 -13.0296 
403 2 3.51694 5.45271 -11.9697 
414 2 2.73465 7.55841 -10.2546 
412 2 1.19172 6.04888 -11.4058 
416 1 3.59459 5.10546 -9.02141 
410 1 0.0952648 8.08803 -9.8876 
419 2 5.37712 6.53479 -10.6814 
853 2 7.40357 8.06803 -9.34602 
60 2 1.81963 -7.53664 -7.63845 
527 2 2.24418 -7.7203 -5.08861 
122 1 2.20073 -5.06437 -6.38509 
105 2 -0.0186376 -4.91907 -4.55214 
497 1 4.40461 -7.37778 -6.64409 
504 1 8.36319 -7.13388 -8.19413 
496 2 6.70668 -8.95257 -7.24783 
498 2 6.10428 -8.852 -4.78362 
547 2 7.01213 -6.54465 -5.92906 
503 2 6.13483 -5.63217 -8.17853 
550 2 5.33861 -4.90537 -5.5744 
499 1 8.90964 -8.43071 -5.12708 
536 2 9.39108 -5.69477 -5.86341 
505 2 10.8033 -7.22406 -6.9581 
560 1 12.1343 -5.26736 -5.1845 
506 1 10.5081 -4.64141 -8.04827 
548 2 3.82872 -3.11926 -4.86663 
124 2 2.77349 -2.02018 -6.58161 
120 1 0.842641 -2.81059 -8.23149 
201 2 1.02972 -0.55608 -7.20661 
119 1 4.59292 -3.37339 -7.81172 
856 2 9.08523 8.6686 -4.53241 
551 1 7.80863 -3.64369 -7.09943 
557 2 7.93529 -1.67181 -4.71085 
553 1 5.58373 -1.23064 -6.16491 
568 1 7.8686 -0.717868 -8.0736 
572 2 10.2964 -1.9707 -7.61403 
507 2 12.3413 -3.01772 -6.71701 
559 1 10.1313 -2.92506 -5.12274 
577 2 11.814 -0.563011 -6.20396 
576 2 9.37806 -0.0368018 -6.06331 
198 2 0.307478 0.380287 -4.8155 
140 1 3.15672 0.698787 -7.03692 
645 2 3.95334 3.03714 -6.77498 
215 2 1.89733 2.99096 -8.3712 
216 2 0.712543 1.91149 -6.7482 
218 2 2.1143 2.07881 -4.71827 
644 2 4.74645 1.4714 -4.86041 
569 2 5.84379 1.19796 -7.2411 
571 1 7.40395 0.933775 -4.75061 
573 1 8.48158 2.2928 -7.6168 
648 2 6.19544 3.26822 -5.87619 
841 2 5.90226 3.55858 -8.42151 
657 1 8.97755 3.6156 -4.68083 
845 2 10.8123 2.68267 -8.85024 
575 2 10.5312 0.336631 -8.23977 
578 1 11.3245 1.95733 -5.98874 
432 2 1.8564 8.80291 -4.99762 
217 1 1.59969 4.5087 -6.29233 
415 1 2.19767 7.39737 -7.4596 
413 2 0.832796 5.25223 -9.0761 
646 2 2.95207 6.45817 -4.76761 
303 2 0.559489 6.49131 -4.83577 
848 1 4.82167 8.41181 -8.54155 
864 1 4.6672 8.57205 -5.35077 
849 1 4.92574 5.7539 -6.5626 
857 2 9.02033 6.31505 -8.4302 
851 2 6.46808 5.76902 -8.81026 
850 2 7.72625 4.90997 -6.93747 
852 1 7.45882 7.70116 -6.53172 
647 2 6.77056 5.17116 -4.39355 
846 2 10.0476 4.45185 -7.22141 
855 1 10.389 6.91477 -6.1455 
861 1 11.8755 4.54988 -4.53681 
532 2 4.31705 -6.9798 -4.10605 
529 2 2.22072 -5.53061 -3.81306 
530 1 2.52344 -7.80871 -2.26106 
871 1 5.94496 9.07801 -2.22312 
528 2 2.9325 -4.95532 -1.51805 
539 1 6.92516 -6.6296 -3.22978 
533 2 5.23968 -8.87285 -2.44221 
538 2 7.10459 -8.46177 -0.875918 
534 1 4.89922 -6.59285 -0.633416 
540 1 8.54349 -6.08085 -0.521073 
552 2 4.6298 -4.77766 -3.20839 
500 2 11.1426 -7.59022 -4.46732 
554 2 9.66106 -5.71165 -3.34066 
537 1 9.79639 -8.34092 -2.00949 
543 1 12.1512 -6.33427 -2.16622 
626 1 2.66218 -0.688231 -4.24395 
199 2 0.379724 -1.01053 -2.56718 
625 2 1.70316 -3.31621 -3.1687 
630 1 4.12423 -2.41901 -1.99893 
604 1 1.15471 -2.7115 -0.63444 
627 2 2.39812 -0.394215 -1.69208 
558 2 7.71716 -4.43768 -4.58055 
549 2 6.16996 -2.82727 -3.76141 
556 1 8.59154 -3.16032 -2.34387 
541 2 6.33989 -4.50612 -1.55879 
555 2 5.39597 -0.535688 -3.43266 
563 1 12.953 -1.9232 -4.09707 
562 2 11.5386 -3.85884 -2.95555 
639 2 9.41378 -1.51372 -0.159161 
580 2 11.1439 -1.76103 -1.92794 
546 1 11.0103 -4.16223 -0.186668 
564 1 13.5779 -2.9405 -1.24498 
652 2 2.53015 3.48454 -1.33924 
200 1 0.76431 1.77575 -2.32162 
219 2 1.2777 4.16948 -3.53876 
649 1 4.00262 4.0116 -4.0166 
709 2 0.400048 4.5804 -0.941447 
631 2 2.53598 1.46942 -0.037143 
636 1 7.64932 -0.292218 -1.88672 
629 1 4.46403 1.5323 -2.04627 
635 2 6.62958 2.7754 -0.564021 
656 2 8.74274 2.29687 -2.15581 
653 2 6.42938 2.97798 -3.15157 
650 2 4.79754 4.37534 -1.35729 
579 2 12.8156 0.950093 -4.20963 
574 1 10.2625 0.0326379 -3.6172 
581 1 13.2246 0.183921 -1.77099 
661 2 11.8602 2.85923 -0.640788 
633 2 10.5966 0.645899 -0.927833 
655 2 11.1235 2.3273 -2.98463 
664 1 13.8561 3.06972 -2.4341 
306 2 0.27028 8.10989 -2.90588 
863 2 3.27138 8.66404 -2.69433 
735 1 2.19966 6.25245 -2.19272 
734 1 2.12199 8.23791 -0.106524 
736 2 4.85955 6.96197 -0.736813 
651 2 4.83234 6.58437 -3.21606 
860 2 6.8986 7.5726 -4.0544 
742 1 8.73726 7.88128 -2.07483 
658 1 7.19142 5.49755 -1.77158 
659 1 10.2392 4.70374 -1.87188 
858 1 11.4956 7.36371 -3.26906 
859 2 9.04509 6.14167 -3.95828 
876 2 11.1618 7.41408 -0.709481 
862 2 12.8135 5.66865 -1.87271 
614 1 6.26798 -2.34723 0.123603 
584 2 1.31388 -7.08536 2.87255 
603 1 1.2901 -4.64234 1.84264 
594 1 3.96724 -5.88205 2.4863 
596 2 4.39237 -8.79082 2.42122 
582 1 2.14786 -8.90412 0.778703 
597 2 6.43209 -5.60121 3.44092 
522 1 6.64939 -7.65841 1.82868 
609 2 6.34128 -4.92785 1.0935 
524 2 9.14017 -8.1965 3.22365 
523 2 9.08747 -8.40624 0.804271 
615 1 9.06541 -5.70718 2.3587 
620 1 11.9537 -5.39694 2.63694 
526 2 11.376 -8.35457 2.42574 
542 2 11.031 -6.92091 0.431022 
545 2 13.235 -5.48544 0.384256 
586 2 2.53911 -3.98982 4.18567 
687 2 0.344889 -2.724 4.16365 
607 1 2.17457 -1.98441 2.42136 
628 1 3.89035 -0.667682 0.526464 
606 2 3.66328 -3.6197 0.519906 
692 2 2.0102 -0.398586 4.74896 
632 1 7.54924 -0.578416 2.52516 
610 1 5.0557 -2.94003 2.97512 
612 2 7.65417 -3.31117 2.93086 
611 2 8.43198 -3.66491 0.568925 
808 2 2.39069 9.03417 4.52544 
638 2 12.1031 -0.854607 2.63823 
618 1 10.2733 -2.61951 2.37169 
622 2 12.656 -3.18754 4.01621 
621 2 13.0239 -3.03496 1.53223 
640 2 10.0589 -0.0156661 1.4723 
561 2 11.7765 -1.40321 0.250995 
641 1 14.5178 -0.799678 0.940929 
710 1 0.275827 0.00113121 0.398182 
711 2 2.16438 0.811724 2.34886 
714 2 2.72022 2.81671 3.43165 
715 2 1.3057 3.32869 1.12492 
718 1 4.48064 2.50061 1.37084 
696 1 4.7809 -0.00920371 3.50809 
720 2 5.0749 2.61055 4.25378 
721 1 7.36656 2.4016 2.31144 
722 2 6.91515 4.2381 4.24748 
634 2 6.15223 0.5183 0.465552 
637 2 8.56594 1.27784 0.200592 
654 2 8.64347 3.83493 0.156606 
727 2 9.44761 3.19603 4.2157 
728 2 11.9357 2.73738 3.96079 
726 1 10.2773 0.665739 4.03961 
723 1 10.4374 2.71271 1.77315 
643 2 13.0947 3.42735 1.91491 
642 2 13.4773 1.05876 3.25868 
662 2 12.285 0.993003 0.939879 
663 2 14.2227 2.02111 0.126328 
712 1 1.04546 4.90425 3.48833 
716 2 0.84578 5.90867 0.955534 
733 1 3.20788 5.12412 0.677943 
811 2 2.42316 7.27827 2.53498 
719 1 4.30372 5.00571 3.43565 
791 2 0.48019 7.53827 4.28214 
814 2 4.52121 7.93353 3.98162 
741 2 4.73438 7.23969 1.59926 
740 1 6.55897 5.17711 1.27192 
739 2 6.52275 6.69843 3.45027 
750 2 8.6055 7.25963 2.36161 
746 2 8.94874 4.84354 2.66802 
743 2 9.28303 6.43541 0.307506 
732 2 11.2752 5.1949 3.75174 
665 1 11.6077 5.36297 0.90029 
749 2 10.896 7.9398 1.57878 
747 2 10.4762 7.64742 4.07032 
589 2 0.129296 -8.29854 4.86261 
590 2 2.61699 -6.79214 4.99492 
588 1 0.23583 -5.44921 4.91396 
676 2 2.58925 -4.6707 6.72876 
459 1 1.33877 -7.15518 7.59584 
672 2 2.51977 -5.29388 9.28482 
595 2 3.98583 -6.49675 7.20752 
462 2 3.18726 -8.67691 6.45631 
591 1 5.23556 -7.94175 4.88739 
600 2 7.90914 -6.80069 4.75972 
592 2 4.48978 -5.11289 5.17609 
466 2 7.74154 -8.22322 6.95369 
593 2 6.25445 -6.33373 6.90267 
599 2 8.67269 -5.87778 6.78143 
464 1 5.27849 -8.72476 8.27322 
616 1 10.2202 -4.55445 4.93449 
601 1 10.6402 -7.40369 5.24824 
602 2 10.0986 -7.41149 7.90028 
679 1 10.5127 -4.76955 8.3112 
668 2 0.417143 -4.64751 7.64753 
677 2 2.40817 -2.84776 8.44308 
670 2 1.30783 -2.67919 6.30472 
694 1 2.05082 -0.248055 7.46279 
693 1 4.08741 -2.24074 6.06012 
619 2 8.74418 -1.86729 4.82186 
697 2 6.4528 -1.45278 4.96554 
678 1 4.97 -4.0869 8.06095 
681 2 7.66871 -4.07199 8.25671 
613 1 7.00551 -4.01035 5.55206 
700 2 6.70312 -1.8978 7.55161 
703 2 8.5429 -0.466088 7.14344 
695 2 5.45779 0.166229 6.70547 
617 2 11.0014 -1.69319 5.03293 
624 2 13.3683 -0.835032 4.80302 
623 2 12.1421 -3.20349 6.4524 
701 2 9.38274 -2.87964 6.82013 
707 1 11.4632 -0.76226 7.58805 
698 2 3.50364 1.3958 5.61229 
775 2 1.24269 2.71976 8.01558 
688 1 0.69544 2.0163 5.38555 
797 1 3.05575 4.03844 6.12123 
779 1 3.98689 2.09515 8.14938 
776 2 2.41084 4.68486 8.99543 
699 1 7.4463 1.29574 5.12326 
704 1 7.03289 1.47736 8.4279 
717 2 5.96831 3.31097 6.54555 
725 2 8.46072 3.39991 6.41047 
706 2 12.1904 1.19179 5.85881 
724 2 9.85105 1.47589 6.85869 
729 1 11.2722 3.90799 6.29995 
702 2 11.7487 1.87724 8.2755 
751 2 9.67441 3.35681 8.76377 
789 1 0.317701 5.36369 6.41691 
794 2 3.27405 6.53168 7.60589 
793 2 2.6975 6.5827 4.99196 
790 1 1.36336 8.27019 6.96689 
796 2 4.21656 8.45701 6.26472 
787 2 0.735465 6.3848 8.74465 
798 1 5.46819 7.58278 8.91933 
780 2 4.76567 4.59851 8.33399 
800 1 7.33965 4.72336 8.50363 
795 1 5.6048 6.01625 6.11471 
816 1 7.08053 8.81172 5.41225 
803 2 7.81769 7.33117 7.51164 
730 1 8.66049 6.01753 5.26481 
802 1 10.1136 6.04538 8.24891 
731 2 11.3945 6.61493 5.96214 
745 2 9.74261 8.38545 6.25893 
474 2 0.0619884 -5.83124 9.742 
477 1 2.64946 -7.89179 10.2461 
781 2 9.13763 5.01254 10.636 
479 2 1.65321 -5.35332 11.6426 
478 2 3.86019 -5.99208 11.9238 
680 1 7.71039 -6.69787 9.30332 
480 2 4.77239 -6.23261 9.63689 
482 2 5.41276 -7.91067 11.2105 
481 1 6.41079 -4.79242 11.3523 
683 2 8.62032 -4.25062 10.383 
673 2 0.695914 -3.57892 10.0772 
674 1 3.65506 -3.42743 10.9509 
488 1 1.36894 -2.96485 12.8769 
765 2 1.68927 -1.34236 10.1514 
761 2 0.987206 0.0854814 12.0638 
759 2 3.50903 -1.01215 11.7051 
675 1 4.49918 -0.948618 9.12767 
682 2 6.67708 -2.65733 9.83241 
767 2 4.07733 -2.48112 13.7086 
837 2 6.98052 -0.332361 10.6885 
685 2 5.83011 -2.1059 12.0329 
684 1 8.96239 -1.69821 9.48026 
829 2 6.66585 5.51945 11.2263 
758 2 0.189461 1.02877 9.81099 
766 2 2.5365 0.928835 10.0726 
760 2 3.37595 1.40563 12.1588 
774 2 1.12482 2.36413 11.7347 
778 2 3.24765 3.23168 10.6874 
768 1 5.63205 0.347932 13.1225 
782 2 5.09911 1.16125 10.6672 
784 1 5.13074 3.58304 12.7358 
783 2 5.78966 3.43699 10.1487 
785 1 8.03883 2.53514 11.2051 
705 2 9.58092 0.904447 9.16211 
833 1 2.49804 7.8659 10.2491 
777 2 4.34073 5.46658 10.5087 
828 1 1.99329 5.42614 11.9691 
801 2 8.13121 7.09672 9.9513 
660 2 13.9173 4.48857 -0.135059 
605 2 2.07061 -6.31665 0.124698 
744 2 7.13247 7.78386 0.126826 
764 1 2.64304 -0.140577 14.3684 
763 2 0.0280862 -1.02058 14.1322 
762 2 0.136035 1.54391 13.991 
827 1 2.2949 3.2215 13.8296 
420 2 4.46 11.0731 -8.40666 
417 2 2.27413 9.69755 -9.25843 
847 2 3.06259 10.0331 -6.85079 
437 1 1.94801 12.091 -8.05798 
865 1 1.94643 11.9142 -5.14979 
431 1 0.240064 9.70091 -7.13723 
877 1 4.9535 11.8703 -5.92808 
854 2 6.64421 10.1247 -7.04177 
870 2 6.78237 10.0949 -4.64464 
444 1 0.967011 13.2863 -1.11019 
869 2 3.41172 12.9172 -3.1073 
868 2 4.15342 10.6978 -3.67006 
867 1 1.55745 10.6495 -2.69058 
866 1 3.73606 11.2297 -0.904222 
878 1 6.15699 12.0928 -2.7323 
872 2 8.5874 10.5924 -2.55079 
421 2 0.0641553 10.7626 -9.59838 
874 2 6.70568 10.7188 -0.461692 
881 2 3.69526 13.8386 -0.540565 
873 2 10.7468 9.60146 -1.95965 
433 2 0.51616 13.9072 -3.9776 
883 2 1.25643 10.7823 0.243393 
809 1 3.34043 10.0278 2.0701 
880 1 1.86846 13.0211 1.68687 
806 1 0.209084 9.18394 2.17552 
807 2 1.31245 11.3083 3.67895 
819 2 3.74405 12.1704 3.74267 
812 2 7.8301 11.7938 1.59223 
884 1 5.19655 12.2972 1.38819 
737 1 6.46767 9.35162 2.39771 
748 2 8.97853 9.41424 3.38845 
817 1 6.73316 11.6833 4.21888 
875 1 9.09233 9.62533 0.406864 
815 2 4.65194 10.1824 4.56698 
834 2 1.45771 10.3138 8.80589 
799 2 3.57761 9.43092 8.24033 
818 1 2.42691 11.0746 6.24178 
805 2 0.070247 9.80421 5.01198 
813 2 5.46634 10.7632 6.76455 
738 2 4.89315 9.26828 0.141794 
