ITEM: TIMESTEP
100000
ITEM: NUMBER OF ATOMS
884
ITEM: BOX BOUNDS pp pp pp
-2.7057867000000002e+01 2.7057867000000002e+01
-2.7057867000000002e+01 2.7057867000000002e+01
-2.7057867000000002e+01 2.7057867000000002e+01
ITEM: ATOMS id type x y z 
108 2 -2.91739 -10.5976 -8.83464 
141 1 -0.199213 -9.42431 -9.17457 
94 2 -10.1549 -9.48466 -4.62932 
92 2 -6.04551 -11.3612 -5.42927 
159 1 -7.89373 -9.35592 -6.26681 
182 1 -4.86062 -9.26025 -7.14143 
93 2 -4.35054 -13.0727 -4.5485 
111 1 -1.01749 -11.9127 -7.64787 
107 2 -3.56345 -11.5487 -6.57852 
109 2 -1.83855 -12.3794 -5.04923 
106 1 -1.8688 -9.13902 -6.63648 
144 1 -10.1349 -9.36962 -1.48391 
90 2 -8.33304 -10.4677 -3.47147 
91 1 -5.90505 -11.5764 -2.63056 
74 1 -8.08824 -11.6361 -0.578597 
89 2 -7.27378 -9.23314 -1.72308 
81 2 -5.26094 -12.7135 -0.0096059 
58 2 -2.26189 -12.9348 -0.344133 
99 1 -1.35619 -10.3689 -1.20308 
116 2 -0.613762 -12.5603 -2.86175 
110 1 -3.46752 -10.3198 -4.2015 
55 2 -2.95306 -12.454 -2.66978 
95 2 -3.85477 -10.9523 -1.01578 
162 2 -6.02163 -9.12318 -4.13913 
115 1 -0.239017 -10.0879 -4.15917 
179 2 -4.92558 -9.25271 -9.84089 
56 2 -3.73137 -14.1024 1.78747 
101 1 -0.698353 -9.08094 2.22731 
73 2 -9.96864 -10.5145 1.26484 
75 1 -7.7876 -10.9879 2.61559 
77 2 -5.51536 -12.4646 2.46879 
76 2 -5.17507 -10.3866 3.67689 
83 1 -4.59426 -10.7019 6.60006 
82 1 -5.65507 -10.0193 0.677467 
52 2 -1.34395 -13.7691 2.13817 
59 2 -1.182 -11.7874 3.41358 
84 2 -2.73925 -10.2215 4.26856 
98 1 -3.00824 -11.4099 1.63393 
54 2 -1.99407 -11.6958 6.5638 
53 1 -3.37688 -12.9616 4.34776 
48 2 -0.733974 -13.2906 5.32172 
6 2 -5.21693 -10.2366 9.26177 
2 2 -7.22912 -9.8259 5.04359 
78 1 -6.51307 -12.5322 4.92723 
512 2 -2.63256 -10.3658 8.50963 
491 2 -0.27721 -10.4141 7.92858 
79 2 -8.26718 -9.05856 0.628733 
492 2 -0.744139 -9.3279 10.1252 
97 2 -3.02498 -8.98543 0.302456 
291 2 -3.07856 -2.40579 -13.9893 
359 2 -2.64182 3.0443 -13.7633 
290 1 -3.23423 0.381901 -13.6528 
264 2 -7.94799 -6.10364 -10.0506 
180 2 -5.95298 -5.62373 -11.502 
183 1 -5.47126 -6.76335 -8.9608 
157 2 -7.20139 -8.85914 -8.7225 
335 1 -4.33267 5.68184 -1.5211 
188 2 -3.70219 -6.35441 -11.1532 
184 2 -2.823 -8.10129 -9.11067 
204 2 -1.08808 -6.96211 -10.5541 
185 2 -2.57813 -5.67065 -9.09069 
206 2 -1.92892 -4.60665 -11.1718 
246 2 -9.22123 -3.05043 -9.94046 
265 2 -7.03451 -3.74807 -10.8787 
268 2 -6.12849 -1.65976 -9.95692 
269 1 -5.36957 -2.21921 -12.5065 
266 2 -7.98569 -1.54052 -11.5213 
267 1 -4.32922 -3.91075 -10.0461 
288 2 -3.89346 -4.58498 -12.8351 
270 2 -3.76219 -1.29843 -9.75052 
271 2 -1.58242 -2.45392 -9.66654 
292 2 -2.60527 -2.43405 -11.7665 
788 2 -0.416105 6.74308 -3.56234 
338 2 -9.71764 0.34166 -10.6637 
325 2 -9.14837 2.64454 -10.3859 
339 1 -7.20157 0.974379 -11.2411 
771 2 -2.63716 7.66037 -2.57294 
356 1 -5.13451 2.69085 -12.6321 
345 2 -4.989 2.58752 -10.0119 
340 1 -7.01776 4.34857 -10.7882 
342 2 -4.60854 0.275435 -11.3044 
294 2 -2.00559 -0.272687 -11.1858 
357 1 -0.283952 1.67616 -13.0227 
360 1 -2.45754 2.55778 -11.169 
298 1 -0.248205 0.0239656 -8.88667 
773 2 -1.48077 5.77551 -1.43525 
384 2 -5.21848 6.2505 -9.72759 
385 2 -5.43717 8.68537 -9.08629 
341 1 -3.87175 5.17321 -11.8856 
390 2 -2.06162 7.05201 -12.7668 
363 1 -0.895037 4.77965 -13.1848 
361 2 -0.537632 4.34639 -10.6866 
358 2 -1.81299 6.4585 -10.4168 
344 2 -3.74471 7.89819 -10.6881 
156 2 -9.86032 -7.42857 -6.04352 
221 2 -11.3946 -5.58457 -5.75501 
242 1 -10.2678 -5.43132 -8.37768 
160 2 -8.08275 -6.84573 -7.69679 
161 1 -6.2175 -6.79698 -5.89612 
163 1 -8.70447 -4.88214 -5.80037 
187 2 -4.55289 -4.78228 -7.4267 
789 1 -0.33861 8.39866 -0.696115 
189 2 -0.982875 -6.74362 -7.80052 
181 2 -3.84828 -7.6476 -4.79492 
186 2 -3.40478 -6.83141 -6.99155 
192 1 -1.2756 -6.51201 -5.06451 
190 2 -4.04821 -5.30856 -5.06499 
244 2 -9.81625 -2.82766 -7.56547 
245 2 -10.6071 -0.63241 -6.86829 
222 1 -11.2289 -2.9521 -5.28028 
226 2 -12.8065 -0.657619 -5.46775 
247 1 -8.09893 -1.80434 -5.82773 
248 1 -7.32708 -4.01613 -8.33473 
250 2 -6.13737 -3.88282 -5.51638 
272 1 -5.13715 -2.05969 -7.64114 
249 1 -8.24119 -0.778171 -8.76568 
276 2 -3.94622 -2.87634 -5.26325 
193 1 -2.07435 -4.08275 -6.8038 
275 1 -1.36516 -1.58424 -5.16267 
279 2 -2.38848 -1.22808 -7.65976 
278 2 -3.80289 -0.417135 -5.73221 
349 2 -2.73107 5.1387 -3.73252 
324 1 -10.4436 1.62228 -8.30391 
309 1 -12.0512 1.94892 -5.76292 
328 1 -9.37345 3.60198 -5.85503 
323 2 -11.6285 3.88222 -7.68628 
243 2 -8.79663 0.940362 -6.10731 
343 1 -7.41339 2.28411 -8.14714 
273 2 -5.49357 0.467369 -8.88225 
256 2 -6.30478 0.175958 -6.42703 
327 2 -6.81352 2.28547 -5.45576 
330 2 -9.19113 4.26701 -8.59861 
255 2 -4.83189 1.27363 -4.57482 
281 1 -4.34293 2.18524 -7.08592 
280 2 -2.9065 0.939136 -9.10897 
277 2 -1.84052 0.846978 -6.69864 
365 1 -1.00521 2.86824 -8.19952 
282 2 -2.53811 2.89888 -5.22515 
355 2 -5.85317 0.262698 -13.5104 
331 2 -10.3249 5.94025 -7.38418 
377 2 -9.39538 8.25456 -7.0594 
373 2 -11.3561 7.75534 -5.62005 
326 2 -9.14991 6.38533 -5.28742 
314 1 -12.0378 5.06947 -5.13524 
382 1 -7.71463 6.61524 -8.36307 
346 2 -5.78261 4.2861 -8.31216 
348 2 -5.15662 6.35577 -7.42537 
329 1 -6.83615 5.00611 -5.83275 
378 2 -7.08641 7.63196 -5.94229 
350 2 -3.95282 4.67207 -5.95544 
351 1 -1.27148 5.1385 -6.15872 
347 1 -3.14017 4.49133 -8.92287 
352 1 -2.74608 7.3991 -7.90627 
368 2 -0.441053 5.89353 -8.56586 
353 2 -2.29643 7.66412 -5.1587 
142 1 -11.5376 -7.19265 -3.63803 
145 2 -9.72651 -6.70827 -1.69423 
143 1 -12.1065 -6.29061 -0.427732 
225 2 -10.0422 -4.91319 -3.57199 
158 1 -8.31058 -7.60036 -3.8046 
167 2 -5.77687 -6.55561 -3.24429 
149 1 -7.04798 -6.87449 -0.668533 
165 2 -7.73003 -5.28243 -2.7052 
166 2 -4.61694 -5.62002 -1.08471 
114 2 -1.94546 -8.22669 -3.18241 
96 1 -4.48961 -8.40819 -1.92387 
169 2 -3.2408 -6.18838 -2.89729 
171 1 -1.81666 -6.8763 -0.804992 
196 2 -0.551509 -5.36111 -2.69853 
220 2 -12.1115 -4.46852 -2.71375 
228 1 -9.62612 -4.08284 -0.730046 
223 2 -12.9627 -1.73754 -3.04692 
230 2 -10.7938 -2.32858 -2.29811 
227 1 -11.7111 -0.0755225 -0.952998 
224 1 -10.4209 -0.346239 -3.95499 
13 1 -12.9439 -3.06784 -0.507366 
233 2 -9.12143 -1.28023 -1.03483 
251 1 -8.19982 -2.768 -3.31187 
168 1 -5.32675 -3.89912 -2.95651 
253 2 -5.68815 -1.43361 -4.45552 
252 2 -6.50453 -1.3663 -1.74663 
164 1 -6.77716 -3.66486 -0.121579 
174 2 -4.37023 -2.38827 -0.89118 
191 2 -2.20453 -4.10717 -3.94629 
172 2 -2.61502 -4.11042 -1.50704 
274 2 -3.10457 -2.02579 -3.06383 
197 1 -0.561149 -2.47821 -2.48346 
283 2 -1.57852 0.068941 -2.05351 
362 2 -1.49289 8.81984 -11.0922 
234 2 -11.6046 2.74713 -0.389075 
311 2 -13.6427 3.18381 -3.77376 
310 2 -13.0607 0.642107 -3.43891 
231 2 -9.21137 1.24395 -1.68498 
315 1 -11.081 2.57334 -3.10697 
41 2 -13.6053 2.35459 -1.62002 
232 1 -9.06802 3.89497 -0.981634 
337 1 -5.18199 3.7268 -3.45922 
254 1 -7.53331 0.347883 -3.65223 
332 2 -7.99001 3.17426 -3.47087 
257 2 -6.78547 2.13036 -1.66507 
260 2 -4.73049 2.66518 -0.511393 
262 2 -6.59898 4.43426 -1.11218 
372 1 -0.0337006 9.02722 -8.85796 
259 1 -4.52755 0.30187 -2.19089 
261 2 -2.58553 1.18939 -0.100381 
285 2 -2.23486 0.941112 -4.06915 
263 1 -2.5434 2.83125 -2.3292 
287 2 -0.39063 4.27634 -3.18845 
713 2 -0.540795 3.33597 -0.517139 
40 2 -12.113 7.82963 -1.04914 
316 1 -9.46345 6.85567 -0.794793 
374 2 -10.6591 7.18159 -3.16958 
313 2 -9.88492 4.94345 -3.3995 
312 1 -12.0651 5.07472 -1.79133 
320 2 -8.04959 8.54636 -2.54141 
333 1 -7.39102 6.04724 -3.10385 
334 1 -4.68978 6.84781 -4.51742 
336 1 -5.3704 8.71125 -1.97503 
317 2 -6.61232 6.73227 -0.498354 
237 2 -7.26283 0.231642 -0.278186 
289 2 -1.1385 -0.980808 -13.4006 
11 2 -13.551 -5.09285 1.607 
14 2 -11.2093 -4.34635 1.53339 
16 1 -11.7187 -6.6463 3.00979 
146 1 -9.52697 -6.68705 1.21518 
12 2 -11.3345 -8.51633 0.970681 
17 2 -9.17806 -6.35537 4.16444 
148 2 -6.3701 -5.50346 1.63841 
152 1 -6.35899 -5.41454 4.28944 
80 1 -6.64589 -8.02819 2.68226 
147 1 -8.64601 -4.42114 2.62072 
170 2 -4.72752 -7.27277 0.73055 
154 2 -4.09241 -6.17912 3.19467 
100 2 -2.10082 -7.22477 4.18445 
178 1 -1.29055 -4.46042 3.27613 
104 2 -2.38517 -6.75948 1.77719 
88 2 -3.80602 -8.7296 2.67421 
15 2 -12.9877 -4.29856 4.08544 
29 2 -13.7811 -0.932289 0.799614 
19 1 -10.8873 -2.80243 3.67747 
28 2 -13.1467 -2.69527 2.16269 
32 2 -10.8574 -1.78215 1.00997 
31 1 -12.0877 -0.118732 2.73572 
37 2 -9.56805 -0.332447 4.03267 
235 1 -8.27494 -1.65152 1.71865 
150 1 -5.66883 -2.57493 3.04438 
258 1 -4.85755 -0.5179 0.768591 
20 2 -8.12705 -2.36699 4.45004 
176 2 -1.20197 -4.53965 0.411139 
173 1 -3.92946 -4.28713 1.16405 
175 2 -2.99769 -2.14959 2.74158 
236 2 -4.37105 -0.172843 3.36186 
608 2 -2.08656 0.0633374 2.08702 
478 2 -3.78139 6.69505 11.6459 
229 1 -9.58665 0.851766 1.09712 
30 2 -13.0835 1.48867 0.758522 
42 1 -13.5273 4.24925 0.871157 
36 2 -11.3071 2.74281 2.14809 
33 2 -13.7637 2.28679 3.00408 
238 2 -6.67645 0.493267 2.54086 
240 2 -9.16895 3.38994 1.66439 
239 2 -6.93601 2.44103 0.733884 
241 2 -7.23295 4.08688 2.85366 
667 1 -5.34614 2.62004 3.84806 
35 1 -8.65981 1.96807 3.96774 
480 2 -2.347 4.74853 11.1583 
686 2 -4.03064 2.13133 1.69919 
691 2 -1.36058 2.38364 1.67876 
689 2 -2.86835 4.27972 0.116888 
690 2 -2.69403 4.1142 2.70618 
687 2 -2.60544 1.67755 3.82041 
692 2 -0.423786 3.75701 3.45952 
318 2 -10.7965 4.84431 0.699618 
46 2 -12.0584 6.94547 1.16775 
319 1 -9.55111 7.24198 1.96826 
45 1 -12.8641 4.92106 3.34706 
43 1 -9.84391 4.84674 3.71213 
44 2 -11.4726 7.29292 3.71553 
671 1 -5.16996 4.89164 1.39643 
321 2 -7.85611 5.36147 1.01301 
755 1 -5.69797 7.7046 1.78129 
753 2 -7.44954 6.45684 3.41578 
754 2 -7.80349 8.87062 2.98231 
688 1 -0.745701 5.54791 1.2236 
772 1 -3.25665 7.83771 0.111902 
769 2 -3.08859 6.47561 2.18575 
775 2 -1.07368 8.13559 2.29731 
758 2 -3.5328 8.65497 3.30895 
694 1 -1.45538 6.34307 4.32615 
1 1 -10.0673 -7.32284 6.51489 
18 2 -11.2219 -5.19094 5.37614 
8 1 -10.3732 -4.35902 8.2152 
3 2 -7.58669 -7.46864 5.56035 
4 2 -8.23887 -6.64961 7.97704 
22 1 -8.59491 -4.55336 6.06176 
7 1 -5.51758 -5.86424 7.19634 
85 1 -4.85089 -7.93675 5.14792 
87 2 -4.1306 -8.19343 7.80613 
514 1 -0.908114 -7.10802 8.73832 
511 2 -2.98896 -6.39596 6.53058 
530 1 -0.252187 -5.8319 5.99564 
10 2 -12.091 -3.03794 6.21889 
25 2 -13.5087 -1.774 4.56232 
38 2 -11.599 -0.544879 5.50105 
23 2 -9.79996 -1.96482 6.23016 
9 1 -11.0443 -1.29107 8.47157 
153 2 -6.30556 -3.25207 5.84375 
24 1 -7.66012 -1.90036 7.78057 
155 1 -6.80174 -0.203048 5.2858 
589 2 -4.98674 -0.65149 7.91947 
585 2 -4.78639 -3.05593 7.84787 
151 1 -3.6289 -4.13417 5.11291 
582 1 -2.12081 -4.16247 7.85596 
605 2 -0.849938 -3.11287 5.86591 
603 1 -1.83015 -1.01448 4.74799 
583 2 -4.51934 -1.56079 5.47965 
584 2 -2.92348 -1.61138 7.05951 
594 1 -0.31089 -0.92557 7.58743 
27 2 -13.6753 0.597396 4.79704 
26 2 -12.1129 0.967573 7.30663 
471 1 -9.39151 0.812732 6.79649 
39 1 -11.631 2.32736 4.91536 
34 1 -11.4908 3.46829 7.78137 
469 2 -9.5406 3.56646 6.14211 
460 2 -7.19168 0.909074 8.25575 
470 2 -6.58367 2.35282 6.24651 
473 2 -8.11374 3.25698 8.0947 
474 2 -6.26565 4.5854 8.38322 
668 2 -4.67964 3.89566 6.45224 
590 2 -2.67982 0.403615 8.48666 
592 2 -0.462219 1.71071 8.51156 
588 1 -4.00264 1.11201 6.06898 
586 2 -1.20796 1.47733 6.19259 
676 2 -2.37124 3.0173 7.58383 
670 2 -2.42267 3.5941 5.07547 
674 1 -2.66172 7.15825 9.09651 
47 2 -11.2782 5.61906 5.76638 
483 1 -9.47373 5.7875 7.81676 
485 1 -9.11361 7.61973 5.26764 
666 1 -7.22752 4.95078 5.71423 
756 1 -6.09073 8.29638 5.04882 
475 2 -7.09499 7.18209 7.66063 
673 2 -4.79952 6.20181 7.16932 
669 1 -4.44435 5.55817 4.39092 
5 1 -6.78806 -8.90716 7.77712 
675 1 -0.242619 7.33572 7.07289 
677 2 -2.38841 5.35983 6.74925 
680 1 -0.120239 4.33626 13.1498 
765 2 -3.10998 7.58034 6.20781 
678 1 -0.754153 4.60816 8.98249 
21 2 -7.37235 -4.49375 8.89283 
445 2 -5.81953 -6.8378 9.69799 
455 2 -6.17153 -4.79308 11.338 
448 2 -4.47021 -4.51353 9.66367 
515 2 -3.36188 -6.39108 8.97466 
446 1 -3.53139 -8.538 10.4203 
447 2 -3.7861 -5.97817 11.6578 
513 2 -2.10514 -4.67623 10.5406 
450 2 -2.16224 -4.9405 13.052 
518 2 -1.33015 -6.90907 11.5521 
453 1 -8.72959 -3.07189 10.7633 
454 2 -6.31041 -2.2433 12.2515 
457 2 -5.97824 -2.77058 9.81245 
456 2 -8.73962 -0.388499 9.53548 
458 1 -6.23825 -0.306059 10.544 
86 1 -1.80829 -8.74043 6.40557 
449 2 -4.1849 -3.45852 12.013 
596 2 -0.859426 -2.66645 9.77845 
452 2 -1.86516 -2.71896 12.0147 
587 1 -3.35656 -1.88632 10.0095 
461 1 -3.70789 -0.853595 12.9705 
591 1 -0.973755 0.0213423 10.7733 
468 2 -9.94387 1.5957 9.35281 
467 2 -9.73782 3.94541 9.7148 
459 1 -5.05054 2.31886 8.97376 
472 1 -7.61968 2.3796 10.5605 
463 2 -5.38978 1.70592 12.0264 
477 1 -4.98492 4.24359 11.3466 
672 2 -3.80982 4.63019 8.89025 
462 2 -3.7144 0.732773 10.7534 
464 1 -2.52654 2.33406 12.7271 
595 2 -2.38215 2.51456 9.94704 
593 2 -0.227987 2.80341 10.9264 
476 2 -7.65525 5.28669 10.0033 
479 2 -5.57788 6.62876 9.71355 
481 1 -1.24296 7.05222 11.932 
63 1 -9.6078 -8.98527 3.56303 
482 2 -2.92594 5.04461 13.2949 
105 2 -0.105923 -6.54602 1.59742 
488 1 -4.99246 8.94401 7.94828 
177 1 -1.93504 -1.89387 0.103704 
451 1 -0.779719 -2.74623 14.3311 
465 2 -1.17513 -0.0134164 13.5483 
823 1 -2.73715 10.4334 -1.69171 
383 1 -3.11183 10.2972 -9.21394 
379 2 -7.493 9.4551 -7.60707 
394 1 -5.63157 11.4701 -7.87357 
387 1 -4.9928 9.21915 -6.49358 
392 2 -7.39208 10.9537 -5.76557 
792 1 -0.711576 9.65605 -3.76859 
389 2 -1.02717 11.727 -8.20743 
388 1 -1.97668 9.91197 -6.30795 
397 2 -0.747386 12.583 -5.86509 
395 2 -3.30536 12.1937 -6.69342 
375 2 -10.1157 9.46614 -1.8473 
380 1 -9.22311 9.07122 -4.67378 
381 2 -6.22983 9.33393 -4.1981 
396 1 -5.23359 11.909 -4.47034 
393 1 -7.7965 11.2836 -2.66208 
824 2 -5.25893 11.4788 -1.86003 
386 2 -3.65993 9.57287 -4.06849 
787 2 -0.324664 11.0648 -0.489816 
830 2 -2.50127 11.9905 -4.42021 
831 1 -0.576784 12.6706 -2.79231 
838 2 -3.33499 13.2168 -2.38419 
376 2 -9.15122 11.3208 -0.314271 
839 2 -1.8817 12.9093 -0.118068 
685 2 -0.970035 9.06164 9.59664 
322 1 -10.8553 9.50298 0.936924 
484 2 -10.0284 9.55821 3.54516 
770 2 -4.94893 10.1535 0.285428 
821 2 -6.72067 11.8084 0.215911 
820 2 -8.49639 10.9853 2.00813 
757 1 -5.59095 10.6497 2.87023 
752 1 -7.69686 9.10932 0.156763 
825 2 -4.2076 12.4827 0.118037 
826 1 -2.49712 10.4983 1.42938 
828 1 -0.875437 13.0553 2.58663 
822 2 -3.66556 12.9463 2.44075 
778 2 -0.306262 10.7674 3.72349 
774 2 -3.01028 11.2235 3.86765 
763 2 -5.91557 11.0035 6.26764 
487 1 -7.93807 10.9415 4.69599 
762 2 -4.93047 12.4975 4.72903 
486 2 -7.80616 9.42752 7.07894 
764 1 -3.57116 11.9456 7.25354 
761 2 -3.92102 9.79442 5.53357 
827 1 -2.56514 13.805 4.96572 
760 2 -1.45991 11.3843 5.74035 
768 1 -0.562607 11.6202 8.39293 
759 2 -2.04916 9.54217 7.38769 
767 2 -3.12791 10.2014 9.26569 
766 2 -1.58134 9.03435 4.98309 
69 2 3.52114 -13.4453 -5.10914 
126 2 3.17353 -11.5557 -6.74458 
112 1 0.794548 -12.8182 -5.58304 
129 2 2.59778 -11.3971 -4.26256 
127 2 1.04551 -10.3149 -6.95308 
130 2 4.15234 -9.42654 -5.84152 
72 2 9.35725 -10.7348 -2.74033 
398 1 5.88912 -10.4742 -7.73745 
131 1 5.46808 -11.7177 -5.01105 
400 2 8.00898 -10.6626 -5.43157 
64 1 1.96064 -13.7438 -2.8139 
134 2 4.45428 -10.049 -3.15587 
117 1 1.6515 -10.8618 -1.68382 
65 2 2.73555 -12.9394 -0.166773 
510 1 9.84442 -9.09302 -0.429245 
135 2 7.23383 -9.43763 -0.269518 
128 2 7.75089 -12.348 -3.59999 
137 1 7.00292 -9.52354 -2.81654 
70 1 5.07319 -12.7013 -2.30133 
71 1 7.80185 -12.0974 -0.792045 
123 1 4.90341 -10.5764 -0.533619 
132 1 3.06067 -8.95958 -8.39817 
113 2 0.19301 -13.4232 -0.808362 
50 2 1.42858 -14.2208 1.50635 
60 2 1.64597 -10.4018 2.90298 
49 2 0.961833 -12.9497 3.47361 
68 1 3.25754 -12.3666 2.39186 
66 2 4.16088 -9.79381 2.24906 
103 2 2.53704 -10.0392 0.622157 
57 1 0.382215 -11.6356 1.06273 
489 2 5.09669 -11.3499 4.35903 
490 2 7.40584 -12.0526 4.53489 
51 2 5.89375 -13.385 2.8383 
502 1 6.72144 -10.9507 2.02888 
501 2 8.64915 -9.88579 3.81715 
67 2 5.32341 -12.8766 0.409404 
508 2 9.2189 -10.8237 1.26912 
497 1 3.22424 -9.09858 4.77428 
61 2 2.79246 -11.9164 5.18022 
62 1 0.306205 -10.6918 5.18867 
495 2 2.26691 -10.7329 7.27828 
496 2 4.68799 -10.4126 6.71323 
504 1 7.12838 -9.87619 6.10959 
493 2 3.83368 -9.89558 9.10874 
503 2 5.99037 -9.12699 3.83938 
422 2 1.2915 -0.287822 -13.9394 
438 2 2.06797 2.19734 -14.4022 
427 2 4.00732 -0.0187525 -13.7451 
205 2 1.08434 -6.92596 -9.54384 
405 1 3.71122 -6.95625 -10.5452 
203 1 0.814205 -5.85802 -12.0384 
207 1 -0.0478858 -4.57085 -9.1427 
409 2 5.89517 -8.43927 -9.41092 
406 2 6.19776 -6.19845 -10.107 
202 2 2.3971 -4.57584 -10.2026 
404 2 2.64623 -3.86513 -12.4046 
423 1 4.00299 -2.21537 -9.8932 
296 2 1.28186 -2.02558 -9.87538 
424 2 2.64168 -1.35701 -12.0918 
293 1 0.200121 -2.9877 -12.0773 
299 2 0.539075 -0.297907 -11.3931 
407 2 4.73588 -4.59984 -11.1627 
426 1 5.36051 -2.12351 -12.4663 
410 1 6.98847 -3.55785 -9.67458 
421 2 8.09279 -1.76454 -11.6378 
431 1 6.61334 -0.540075 -9.553 
417 2 9.35435 -1.84369 -9.48808 
425 2 2.48646 1.2619 -12.1897 
428 2 4.72278 0.302081 -11.3647 
295 2 2.52959 0.349027 -9.98318 
434 1 3.91459 2.96551 -10.2915 
300 2 0.760999 2.28872 -10.4917 
429 2 4.68481 2.15629 -13.0625 
364 1 1.96939 4.11184 -12.2863 
430 2 6.42765 1.88512 -10.7853 
436 1 6.96231 0.551253 -13.008 
865 1 8.646 3.62456 -10.7617 
439 2 6.84632 3.42709 -12.879 
437 1 9.15477 0.674359 -11.0552 
440 2 4.64443 4.62998 -12.8285 
442 1 3.79257 6.34641 -10.7941 
371 1 0.760232 6.97047 -11.1155 
369 2 1.66712 4.6148 -9.52826 
366 2 2.47318 8.79007 -9.81004 
443 2 5.94884 4.57245 -10.7414 
441 2 6.13203 6.67214 -11.9147 
433 2 8.40377 6.41434 -10.9067 
869 2 9.02531 5.30678 -8.78602 
444 1 6.59878 6.47492 -9.12584 
879 2 5.3327 8.57053 -10.347 
211 2 2.60737 -5.89961 -7.97025 
133 2 0.687853 -8.07306 -6.37421 
213 2 2.89012 -7.32061 -6.06435 
209 2 0.716902 -5.20751 -6.55594 
748 2 10.174 8.44842 -0.56118 
212 1 3.64995 -4.57471 -5.90487 
412 2 7.8502 -5.86271 -8.27915 
399 2 7.66654 -8.33273 -7.6431 
411 1 5.35036 -6.99117 -7.40184 
402 2 8.89775 -8.46683 -5.13058 
139 2 6.4536 -8.90954 -5.37982 
401 2 7.39481 -6.61999 -5.71114 
403 2 9.60507 -6.53246 -6.90113 
419 2 11.3358 -4.67409 -6.41937 
208 2 2.21694 -3.58319 -8.00415 
214 1 1.86179 -2.24955 -4.94936 
301 1 2.73522 -0.9438 -7.5193 
297 2 0.147953 -2.37851 -7.48004 
408 2 4.50627 -4.55014 -8.83414 
418 2 5.38435 -2.36481 -7.65908 
413 2 6.51607 -4.36594 -6.89007 
416 1 8.78767 -4.25592 -5.45077 
217 1 5.87667 -2.23319 -4.91291 
415 1 7.98083 -1.57888 -7.13556 
303 2 4.91776 -0.227417 -6.40446 
414 2 9.51513 -4.00901 -8.11677 
853 2 13.5187 -3.76223 -4.8448 
848 1 10.9466 -2.00816 -6.73264 
420 2 10.4958 -0.017921 -8.54011 
304 2 2.64288 0.854438 -5.28129 
305 1 2.18716 2.09847 -7.91681 
307 2 3.03911 3.40366 -5.47333 
302 2 0.515443 0.0604984 -6.35147 
847 2 8.52921 1.46647 -8.68956 
435 2 4.6155 0.841449 -8.69285 
306 2 4.79947 2.44333 -6.83514 
646 2 7.2874 -0.0177958 -4.90456 
432 2 6.84473 1.05063 -6.98397 
863 2 7.37519 2.769 -5.3255 
868 2 8.94335 3.43192 -7.18761 
867 1 6.75853 3.41406 -8.38775 
877 1 11.0456 2.70142 -8.66162 
871 1 9.80641 3.5078 -4.47633 
864 1 9.67741 0.896278 -6.21651 
854 2 12.2918 0.541906 -6.9821 
870 2 12.1127 2.73087 -6.02852 
354 1 0.23626 7.7221 -6.13441 
308 1 3.9505 4.85445 -7.88007 
370 2 1.88916 6.78814 -8.28718 
367 2 1.41851 4.645 -7.05568 
806 1 3.25676 7.04957 -5.69582 
804 2 4.24376 7.82931 -8.33688 
881 2 9.14278 7.65767 -7.66442 
883 2 5.65654 6.68623 -6.7201 
866 1 8.02298 5.67781 -6.3439 
734 1 5.24633 4.77899 -4.92995 
884 1 9.27213 8.4102 -5.09027 
872 2 12.2243 4.56511 -4.15167 
878 1 11.0279 5.44143 -6.7296 
195 2 2.23977 -8.95723 -4.06934 
194 1 1.62503 -6.16615 -4.08079 
118 2 0.3592 -8.06658 -2.48154 
120 1 3.0452 -8.32908 -1.47501 
121 1 1.14303 -5.92089 -0.76492 
201 2 3.4468 -5.51873 -2.33421 
874 2 10.231 6.16107 -4.07362 
215 2 6.04376 -4.87589 -4.58102 
125 1 4.82382 -7.29711 -4.05328 
136 1 7.91008 -6.39357 -3.17988 
138 2 5.69758 -7.8797 -1.44218 
566 2 7.75204 -7.04152 -0.608828 
140 1 5.83075 -5.08024 -1.71368 
569 2 8.44539 -4.52801 -0.761354 
843 1 10.8849 -6.33021 -4.38387 
840 2 9.68207 -8.44651 -2.97065 
842 2 11.8411 -7.88175 -2.23466 
567 2 10.125 -6.26478 -1.45046 
844 1 12.6657 -4.91843 -2.20879 
219 2 3.80981 -0.766632 -4.04674 
216 2 3.71013 -3.51456 -3.52537 
198 2 1.55287 -3.85379 -2.5218 
626 1 3.38398 -3.47885 -0.0982995 
199 2 0.744128 -2.84476 -0.262616 
200 1 2.07473 -1.03955 -1.93925 
218 2 4.8796 -1.98757 -2.04238 
645 2 7.54141 -3.16952 -3.00433 
644 2 6.5919 -2.55742 -0.458015 
649 1 7.00165 -0.300798 -2.23941 
852 1 12.7117 -1.09615 -4.68753 
851 2 11.3102 -3.49076 -4.29965 
648 2 9.09422 -2.17503 -1.26907 
849 1 9.56179 -1.43418 -4.07479 
841 2 9.79746 -4.15991 -2.73007 
850 2 11.3514 -2.30413 -2.24714 
846 2 13.1756 -2.50302 -0.235006 
857 2 13.7516 -2.47077 -2.58626 
708 2 0.0678587 1.84131 -2.38878 
284 2 0.393392 0.0184442 -3.84708 
715 2 1.85909 3.10815 -0.961846 
709 2 2.50116 1.37395 -2.99052 
733 1 4.31388 3.452 -1.96559 
716 2 1.84711 3.73923 -3.31094 
631 2 2.75538 1.01982 -0.218849 
652 2 4.48705 0.605189 -1.89465 
875 1 11.4243 5.82601 -1.51656 
735 1 5.16021 1.6064 -4.30018 
651 2 8.93888 1.18763 -3.3596 
650 2 6.15275 1.69092 -0.540554 
658 1 9.05912 1.71028 -0.236345 
736 2 7.1424 2.97032 -2.72631 
860 2 11.5283 1.16741 -4.21514 
856 2 13.5568 2.3909 -3.56069 
647 2 10.3895 0.0165612 -1.93371 
742 1 11.4422 2.69228 -2.0365 
855 1 13.1417 -0.023401 -1.72715 
873 2 13.629 4.3866 -2.0628 
858 1 14.1896 2.18914 -0.555567 
812 2 11.1802 8.23976 -2.74378 
808 2 3.78806 8.69421 -3.41652 
811 2 3.89785 6.24129 -3.03162 
791 2 1.57907 7.94352 -3.25581 
712 1 1.36186 5.79015 -1.62549 
786 2 1.17517 5.39421 -4.70773 
793 2 2.75445 8.08609 -1.00685 
744 2 9.03094 4.43066 -1.89422 
809 1 6.19404 7.68624 -4.26396 
814 2 5.53637 7.84543 -1.51461 
738 2 7.91247 5.20913 -3.78148 
741 2 6.05704 5.66131 -2.22934 
737 1 8.29789 7.33751 -2.00418 
210 2 0.0316776 -4.07912 -4.73117 
286 1 0.206918 2.47505 -5.24623 
102 2 0.572671 -8.69916 -0.123944 
124 2 3.98675 -6.20939 -0.0747989 
740 1 6.96334 4.38602 -0.0356734 
719 1 4.36622 6.01459 -0.0144095 
529 2 1.2647 -5.80325 3.46601 
548 2 3.64347 -5.15141 2.19134 
527 2 0.696425 -7.99628 4.25774 
122 1 2.48366 -7.59946 1.85802 
795 1 4.83424 9.00886 1.21475 
624 2 8.02774 5.28681 10.6273 
693 1 0.0511778 3.95261 6.14359 
550 2 4.90953 -6.66522 3.60101 
551 1 7.72415 -7.11372 3.87563 
553 1 6.37096 -5.19527 1.31627 
565 2 8.25572 -8.53641 1.73838 
119 1 5.65685 -7.92373 1.30854 
572 2 10.5952 -6.41599 4.0997 
575 2 12.382 -5.49251 2.57382 
568 1 9.31347 -6.14821 1.36738 
509 1 10.8179 -8.66536 2.75216 
570 1 12.0773 -6.96565 0.294957 
625 2 1.20577 -4.27967 1.74779 
528 2 1.03197 -3.57428 4.27697 
630 1 3.09796 -2.3776 3.18198 
627 2 2.39793 -1.22562 0.748125 
549 2 5.46585 -3.81628 3.77732 
557 2 7.79186 -4.33744 3.54626 
636 1 6.46701 -0.916674 3.63678 
555 2 5.49407 -2.70784 1.61823 
629 1 4.99902 -0.31288 0.730031 
571 1 8.30599 -2.69232 1.68004 
653 2 7.80025 -0.464982 0.34214 
656 2 8.84598 -0.0147046 2.44862 
576 2 10.1828 -4.44011 2.94011 
574 1 9.65443 -2.17244 4.25338 
578 1 12.4179 -2.92005 2.43873 
657 1 10.854 -0.969001 0.590712 
655 2 11.449 -0.480613 3.22565 
573 1 11.0455 -3.98485 0.187551 
845 2 13.6446 -4.7219 0.554699 
628 1 2.60602 0.606317 2.54026 
711 2 1.05254 2.86539 1.4667 
718 1 3.96794 3.12624 1.05737 
696 1 2.60611 3.33929 3.92818 
721 1 6.10486 4.04781 3.03429 
634 2 4.99252 1.51719 3.23175 
637 2 7.63602 1.82248 3.91869 
635 2 6.96288 1.53598 1.77639 
654 2 8.56821 3.60006 2.06256 
707 1 5.82184 6.93969 10.4184 
743 2 10.2411 4.00689 0.233161 
659 1 10.5487 2.04747 2.88188 
660 2 12.1859 3.81278 4.43621 
664 1 12.8711 1.27672 4.57335 
862 2 13.0768 2.89258 2.39002 
859 2 11.7249 1.87088 0.682269 
861 1 13.6163 -0.0435325 1.45609 
684 1 2.64919 7.42573 10.2401 
714 2 1.98942 4.98982 0.842289 
720 2 3.57769 5.55654 2.61196 
797 1 1.8999 7.55188 1.50753 
698 2 1.11652 5.55656 3.20316 
717 2 3.67361 7.731 3.61067 
779 1 0.88139 8.22112 4.15093 
722 2 5.54628 6.75263 2.55962 
739 2 6.88383 7.02085 0.585774 
746 2 8.20678 5.92178 2.51222 
730 1 7.26264 8.52426 3.21889 
876 2 12.7484 4.36435 0.443614 
750 2 9.28335 6.10446 0.356132 
665 1 11.0319 5.22205 2.66839 
749 2 11.5271 6.83541 0.827391 
747 2 9.64192 7.98663 1.9658 
732 2 9.54459 6.9521 4.51069 
710 1 0.158558 0.589474 0.206604 
494 2 1.44383 -8.79305 9.07873 
552 2 3.20774 -4.74941 4.58925 
531 2 1.15299 -8.47546 6.61047 
498 2 3.50202 -8.21648 7.44123 
532 2 2.47122 -6.70464 5.65507 
533 2 1.70616 -6.47873 8.06545 
539 1 4.37861 -5.56715 7.18254 
558 2 6.38375 -5.28785 5.34798 
547 2 5.5315 -7.68539 5.68873 
536 2 7.44347 -6.62074 7.10943 
554 2 6.85811 -4.68116 8.22692 
499 1 5.86335 -8.06063 8.53846 
505 2 8.45977 -8.56309 8.39751 
506 1 9.66679 -8.01473 5.92298 
559 1 9.13247 -4.88953 5.70904 
507 2 11.591 -5.94635 6.62497 
560 1 9.72548 -6.04784 8.53994 
534 1 1.64075 -3.88364 6.86516 
606 2 1.12339 -1.23802 5.04731 
609 2 2.57172 -1.29291 7.235 
541 2 4.05245 -2.96011 5.80066 
614 1 4.00468 -0.13598 5.24904 
556 1 6.84315 -2.65541 6.13191 
540 1 4.47773 -3.09383 8.58301 
611 2 5.27078 -0.791059 7.38734 
562 2 8.87583 -3.5402 7.98726 
577 2 11.8867 -4.37624 4.77678 
579 2 12.3029 -1.88024 5.00837 
563 1 11.4863 -3.23771 7.20273 
580 2 9.15542 -1.39715 6.82757 
612 2 3.75809 1.25837 7.818 
610 1 1.63558 1.37856 6.23855 
697 2 2.81403 3.97321 6.71586 
639 2 7.05886 0.210864 6.2216 
618 1 6.34966 1.49698 8.65358 
619 2 4.42884 3.60656 8.20353 
632 1 5.18997 2.69555 5.6949 
640 2 7.86514 2.49373 6.4239 
561 2 8.91284 0.62423 7.81861 
581 1 11.5532 0.0597686 6.79238 
723 1 8.83721 4.29023 4.68713 
661 2 10.3449 2.12488 5.68523 
633 2 9.25345 0.227678 5.0045 
641 1 10.8264 2.2475 8.98172 
663 2 12.3805 2.9298 6.8876 
607 1 0.0959158 1.14443 3.64647 
700 2 1.57897 5.607 8.1764 
695 2 1.82818 5.93689 5.42456 
704 1 2.98854 8.26704 6.5497 
703 2 3.92407 6.01204 8.07574 
604 1 0.206423 -1.75661 2.40814 
699 1 4.43892 5.63509 5.17935 
726 1 6.74226 5.09661 7.12159 
724 2 5.53626 7.57018 7.59942 
727 2 7.16484 6.29048 4.73838 
725 2 5.44541 7.9904 5.11742 
729 1 7.90202 8.59637 6.44724 
706 2 7.99275 7.0598 8.80716 
662 2 10.0402 4.01484 7.0308 
642 2 10.0402 5.30421 9.06965 
643 2 11.2971 5.64838 5.61346 
728 2 9.2406 6.2272 6.79298 
516 2 0.244581 -4.69063 9.2175 
538 2 2.74109 -5.03507 9.69218 
535 2 3.38505 -7.36159 9.71136 
520 2 1.02639 -6.85301 10.6266 
521 1 0.467001 -4.44423 11.8127 
519 2 3.06727 -5.35847 12.1256 
500 2 7.52537 -6.6613 9.83082 
537 1 5.33312 -5.42565 10.4288 
522 1 1.67993 -2.27071 9.75341 
517 2 0.342058 -1.65221 12.1971 
524 2 2.62037 -1.13542 11.9926 
523 2 3.67605 -3.31548 11.185 
615 1 4.2775 -0.453941 10.1023 
546 1 7.3392 -1.5935 8.96711 
544 2 5.37395 -4.11888 12.7945 
543 1 8.53742 -4.244 10.6604 
542 2 6.27515 -2.63045 11.0275 
526 2 4.74127 -1.60039 12.9476 
545 2 8.74826 -1.52699 11.4342 
564 1 10.4326 -1.44855 9.33286 
597 2 1.63167 0.38974 8.94184 
600 2 1.85781 0.90963 11.1061 
466 2 0.516164 1.63372 13.0669 
599 2 2.08447 3.0271 12.1364 
613 1 1.92847 3.00397 9.18539 
623 2 5.94386 4.75902 12.0376 
601 1 3.62268 1.24934 13.3239 
638 2 8.40335 3.4407 8.76534 
620 1 6.64787 0.115374 11.6352 
616 1 4.54112 2.46854 11.0854 
617 2 6.09626 4.2591 9.63339 
622 2 7.2742 2.71941 11.0216 
621 2 8.78796 0.827161 10.1716 
683 2 1.25764 6.75606 12.6119 
682 2 0.169215 7.01898 9.66518 
701 2 3.74578 4.97324 10.2216 
679 1 3.41059 5.29041 12.9259 
681 2 1.31313 5.11252 10.8009 
598 2 1.43691 -0.565395 14.0066 
525 1 2.52168 -3.13687 13.7281 
602 2 1.82394 2.99377 14.6305 
882 2 4.36642 10.2113 -8.5723 
880 1 6.75026 9.01212 -7.26708 
391 1 1.74748 11.2823 -9.13578 
807 2 4.48926 9.56893 -5.78503 
836 1 3.03669 11.7995 -6.53418 
805 2 2.14075 9.68819 -4.893 
835 2 0.507149 10.6792 -6.50691 
832 2 1.36649 11.902 -4.38078 
819 2 6.85943 10.1643 -4.81381 
799 2 3.86584 12.1451 -1.09723 
818 1 4.32536 11.3886 -3.78104 
790 1 1.79715 10.5393 -2.14298 
796 2 4.35616 9.9543 -1.24624 
813 2 5.96806 11.5204 -0.165199 
817 1 9.09836 10.0345 -2.65444 
834 2 2.13516 13.2184 -2.6067 
815 2 6.44847 9.81551 -2.44849 
810 2 2.37435 9.09035 -7.42613 
794 2 2.47026 10.3982 0.337168 
798 1 4.07218 12.3095 1.67661 
776 2 0.286701 10.0082 1.54756 
780 2 2.60537 9.79122 2.67583 
777 2 1.71195 11.9554 2.76346 
833 1 1.31784 12.8532 0.18929 
803 2 6.62713 11.0904 2.10607 
801 2 5.85747 12.8633 3.77294 
800 1 4.63829 10.4155 4.20417 
745 2 8.98532 10.4909 2.42895 
731 2 9.64771 9.32401 4.39112 
782 2 0.295822 9.99098 6.50256 
829 2 3.47082 12.7836 4.59993 
784 1 0.688862 12.7891 5.53816 
783 2 2.05925 10.5778 4.92105 
785 1 2.82528 11.2605 7.46855 
781 2 5.46197 12.3467 6.08491 
751 2 5.41254 9.98075 6.83828 
802 1 7.55765 11.0072 4.86921 
702 2 6.67695 9.07339 8.89184 
816 1 7.83629 9.59339 0.096284 
837 2 1.292 9.43187 8.75605 
705 2 4.21411 9.11278 8.96559 
