ITEM: TIMESTEP
20000
ITEM: NUMBER OF ATOMS
884
ITEM: BOX BOUNDS pp pp pp
-2.7057867000000002e+01 2.7057867000000002e+01
-2.7057867000000002e+01 2.7057867000000002e+01
-2.7057867000000002e+01 2.7057867000000002e+01
ITEM: ATOMS id type x y z 
7 1 -0.662379 -10.4612 -2.71621 
53 1 -2.69993 -9.32556 -10.0897 
73 2 -9.28119 -9.62713 -5.38781 
75 1 -6.84152 -9.60273 -7.0312 
2 2 -4.74625 -10.7952 -5.38682 
85 1 -2.09815 -9.16305 -5.30286 
78 1 -4.44608 -11.3642 -8.01803 
83 1 -1.43206 -11.1079 -7.8519 
5 1 -2.37946 -12.2569 -5.0657 
11 2 -9.91156 -10.3554 0.0758519 
12 2 -9.39217 -9.87429 -2.60825 
63 1 -7.2218 -10.7341 -4.0099 
16 1 -7.8212 -11.5216 -1.0011 
17 2 -5.64026 -10.0286 -1.72092 
18 2 -5.18807 -12.7012 -0.168013 
1 1 -4.94039 -12.6602 -2.90589 
77 2 -5.36218 -9.03532 -9.31781 
3 2 -3.64217 -10.4737 -3.30755 
22 1 -3.10539 -11.1724 -0.555788 
4 2 -2.34624 -12.9146 -2.56157 
21 2 -0.437809 -12.4181 -0.938178 
153 2 -1.33749 -9.07699 -0.117981 
14 2 -7.95852 -9.04423 0.19018 
29 2 -9.25142 -9.61173 4.23752 
10 2 -4.61341 -13.2376 2.24278 
25 2 -6.88331 -12.2124 3.53491 
31 1 -6.61416 -9.84816 4.56889 
28 2 -8.34538 -10.7763 1.96018 
19 1 -5.64742 -10.6537 1.43576 
15 2 -7.0081 -12.8494 1.32156 
9 1 -2.06472 -13.3533 3.72474 
37 2 -3.82197 -9.48492 3.57429 
38 2 -4.42403 -11.8357 4.13012 
23 2 -2.94414 -11.3576 2.2644 
24 1 -0.599367 -11.1657 1.49031 
8 1 -2.58564 -13.8086 0.448478 
33 2 -6.91399 -9.71857 7.26399 
27 2 -5.41956 -11.6447 7.39343 
471 1 -1.69663 -10.5809 4.69715 
468 2 -0.58907 -12.5944 6.09732 
26 2 -3.27108 -12.4917 6.10447 
39 1 -4.05208 -9.80438 6.35096 
34 1 -2.17295 -11.3334 8.24241 
20 2 -3.39492 -9.0716 1.15829 
45 1 -4.90086 -9.33925 9.14346 
47 2 -2.46922 -9.50855 10.2801 
473 2 0.117696 -9.89766 6.75618 
483 1 0.234604 -9.67257 9.48561 
64 1 -4.07894 -0.81079 -13.692 
69 2 -4.0632 1.88053 -14.007 
128 2 -0.058396 3.17105 -14.5349 
70 1 -1.51614 0.807679 -13.7265 
81 2 -6.7855 -7.215 -9.71099 
56 2 -4.76677 -7.75095 -11.3754 
95 2 -6.0477 -4.85964 -8.90078 
58 2 -4.85924 -5.1198 -11.0144 
400 2 -0.00917036 5.35416 -13.2571 
98 1 -3.85831 -6.69445 -9.08978 
52 2 -2.51956 -6.86633 -11.6929 
59 2 -1.05708 -7.04599 -9.68187 
48 2 -0.414564 -8.53772 -11.6286 
49 2 -0.241683 -6.21315 -11.9946 
93 2 -9.39607 -3.14798 -10.5805 
107 2 -9.91249 -0.577888 -9.95152 
55 2 -6.74365 -3.33976 -10.5964 
99 1 -4.48246 -2.73026 -9.26258 
116 2 -5.53369 -1.57038 -11.586 
109 2 -7.83169 -0.987048 -11.2061 
113 2 -3.75909 -3.2872 -12.0606 
57 1 -2.04437 -4.3657 -10.3433 
65 2 -1.67084 -2.16719 -13.1696 
103 2 -0.402202 -2.2962 -10.3084 
50 2 -1.86239 -4.64981 -13.0104 
117 1 -2.71758 -0.851971 -10.9879 
108 2 -10.8471 1.70543 -9.41465 
111 1 -8.89291 1.5244 -11.238 
112 1 -6.29362 0.966688 -12.7422 
127 2 -6.58948 2.83261 -10.946 
115 1 -5.58842 0.389071 -9.67611 
126 2 -4.93813 3.8483 -12.3948 
141 1 -8.76804 3.89155 -9.32499 
130 2 -3.43789 3.90321 -10.146 
129 2 -3.90431 1.62843 -11.4638 
134 2 -1.41466 1.57962 -10.9452 
131 1 -2.15943 3.62508 -12.744 
301 1 -3.50164 6.61456 -2.78825 
132 1 -5.76689 5.27256 -10.0584 
409 2 -4.59435 7.77203 -9.62781 
398 1 -3.41277 6.09145 -11.8204 
139 2 -0.947637 5.3517 -11.0196 
399 2 -1.60306 7.87929 -11.1282 
74 1 -9.07427 -7.69116 -7.42276 
90 2 -10.7636 -5.50818 -6.54914 
94 2 -12.353 -5.63404 -4.70788 
79 2 -7.57558 -7.98591 -4.86066 
80 1 -4.99707 -8.35202 -4.35822 
82 1 -6.14106 -6.66983 -6.97045 
89 2 -8.44293 -5.4371 -5.97783 
170 2 -4.70169 -5.37007 -4.82726 
91 1 -8.61183 -4.87951 -8.51336 
76 2 -4.23086 -8.78816 -7.19971 
84 2 -1.90424 -8.22587 -7.79916 
88 2 -3.22068 -6.81995 -6.17366 
100 2 -0.663968 -6.68063 -5.05696 
101 1 -1.04943 -5.41715 -7.54197 
104 2 -2.28847 -4.81389 -5.14267 
97 2 -3.78621 -4.69807 -7.46035 
92 2 -10.6742 -2.68692 -8.63243 
162 2 -9.25438 -3.09876 -6.43013 
159 1 -12.0579 -2.95864 -6.09905 
182 1 -10.614 -0.397603 -7.22581 
157 2 -13.3203 -0.119445 -6.17094 
96 1 -6.31641 -3.61673 -6.52681 
110 1 -7.83299 -1.99824 -8.60462 
181 2 -7.83536 -0.777418 -6.16835 
114 2 -5.59788 -1.11142 -7.34271 
169 2 -5.69648 -1.20539 -4.80727 
167 2 -7.66981 -2.76904 -4.44564 
171 1 -3.41259 -2.53644 -5.93157 
102 2 -1.90111 -2.58342 -8.18695 
105 2 -0.643741 -3.08944 -6.0312 
121 1 -0.941635 -0.456786 -5.59357 
118 2 -3.45282 -0.285433 -7.69329 
179 2 -12.3769 1.64934 -7.47482 
184 2 -10.3056 2.78485 -7.20781 
188 2 -11.7169 4.24635 -5.69081 
185 2 -9.39995 3.49214 -4.93205 
183 1 -11.4849 1.5468 -4.90143 
186 2 -8.73399 1.29413 -5.63493 
106 1 -8.16112 1.0263 -8.43369 
189 2 -7.92973 3.47118 -6.83072 
192 1 -5.81139 1.32691 -6.5196 
133 2 -6.06615 3.05429 -8.57709 
209 2 -5.70713 4.19354 -6.3231 
195 2 -3.22406 1.63661 -9.09247 
120 1 -0.830311 0.0107065 -8.77831 
201 2 -2.05216 1.64327 -6.93901 
196 2 -3.57846 0.10485 -5.18367 
216 2 -1.033 3.71278 -6.00586 
125 1 -0.996943 3.54362 -8.89925 
213 2 -3.84726 3.61422 -7.72128 
194 1 -3.49549 2.73642 -4.96591 
198 2 -0.724 1.8398 -4.50487 
204 2 -9.7198 5.07647 -6.86191 
203 1 -9.17333 7.7303 -6.47889 
205 2 -7.28548 5.85664 -7.76452 
211 2 -4.87715 6.12181 -7.50652 
208 2 -5.08546 7.2847 -5.30882 
207 1 -7.46423 5.81011 -4.98502 
202 2 -7.0961 8.75352 -5.05734 
405 1 -6.22484 8.4382 -7.61967 
401 2 -0.1048 6.92909 -9.26173 
408 2 -3.55336 8.1443 -7.04596 
411 1 -2.58811 6.23005 -8.81089 
215 2 -0.0958621 5.58724 -7.33389 
413 2 -1.1089 7.83204 -6.89383 
212 1 -2.70358 5.74439 -5.83656 
144 1 -9.98757 -7.17413 -4.21152 
142 1 -12.1916 -5.61226 -1.99996 
143 1 -10.2965 -7.8561 -1.00911 
145 2 -8.97898 -5.51338 -1.79278 
146 1 -7.47355 -8.01273 -2.14686 
302 2 -3.69705 5.26939 -0.397496 
148 2 -4.94005 -6.44098 -2.4822 
149 1 -7.09169 -5.37587 -3.68246 
164 1 -6.20563 -4.51275 -1.17586 
154 2 -2.63185 -6.76929 -3.79627 
151 1 -0.40199 -7.32082 -2.19137 
152 1 -3.31001 -8.45403 -1.7237 
306 2 -0.283203 8.41897 -0.0845028 
173 1 -3.11583 -4.55232 -2.37903 
175 2 -1.13179 -4.38314 -0.753505 
242 1 -14.2664 -1.24908 -2.06096 
221 2 -14.039 -3.85084 -1.19175 
156 2 -12.7276 -3.33261 -3.44086 
158 1 -10.1279 -4.02328 -3.98616 
160 2 -12.466 -1.02836 -4.15784 
161 1 -9.84007 -1.13055 -4.18092 
163 1 -11.3443 -2.76491 -1.24134 
250 2 -9.11722 -0.79193 -1.49672 
165 2 -8.46746 -3.06685 -2.21251 
166 2 -5.26452 -3.21675 -3.714 
168 1 -6.32108 -1.4125 -1.7086 
172 2 -3.74088 -1.35728 -3.18582 
174 2 -4.38605 -2.45096 -0.601268 
176 2 -1.4985 -2.26902 -3.67943 
177 1 -2.10319 -1.60779 -1.05522 
199 2 -0.0787211 -0.276839 -3.05843 
264 2 -13.8308 1.07606 -3.6625 
180 2 -13.4686 3.69086 -3.90559 
265 2 -13.3406 2.38549 -1.75184 
187 2 -9.36313 1.60557 -3.16801 
267 1 -11.1782 3.58131 -2.81093 
248 1 -11.5695 0.370097 -1.93741 
270 2 -9.93624 4.29546 -0.454074 
272 1 -9.04766 1.75787 -0.340603 
190 2 -7.42755 0.151851 -3.84562 
191 2 -5.02534 0.807446 -3.3991 
193 1 -6.80272 2.99964 -3.91473 
276 2 -6.76157 1.36405 -1.71049 
275 1 -4.55179 3.22791 -1.90202 
279 2 -7.47366 3.89547 -0.840935 
274 2 -4.49855 0.362137 -1.00608 
214 1 -1.73016 4.28024 -3.19973 
197 1 -2.48076 1.06434 -2.58384 
284 2 -1.9301 3.37898 -0.626403 
303 2 -0.867999 7.35036 -2.26046 
304 2 -1.24105 5.68925 -0.518169 
291 2 -12.3647 7.83337 -1.52028 
288 2 -12.5046 5.99076 -3.39369 
206 2 -10.301 5.88339 -4.48459 
293 1 -8.84533 8.05301 -3.03406 
292 2 -10.57 6.3319 -1.96072 
269 1 -12.7149 5.1513 -0.83427 
290 1 -10.3789 8.75527 -0.2354 
271 2 -8.73176 4.63227 -2.80601 
297 2 -6.35641 5.2261 -2.51123 
210 2 -4.80982 5.04753 -4.25694 
294 2 -8.38817 6.26071 -0.881767 
299 2 -7.56579 8.6139 -0.687765 
296 2 -6.2165 7.53413 -3.16975 
418 2 -2.09603 8.32216 -4.67555 
298 1 -5.81025 6.74826 -0.359702 
295 2 -4.7889 9.0393 -1.29476 
268 2 -11.5728 2.67928 0.00274449 
220 2 -12.6866 -6.92026 0.358585 
222 1 -12.7854 -4.3873 1.1677 
223 2 -12.2949 -6.80955 2.80899 
225 2 -10.529 -5.41193 0.317209 
230 2 -10.1435 -5.4667 2.65237 
13 1 -10.0895 -8.44085 1.97515 
226 2 -12.0621 -4.85239 4.10051 
228 1 -8.03854 -6.20049 0.958946 
229 1 -7.89731 -6.61565 4.06545 
233 2 -5.36501 -5.21536 1.35668 
237 2 -5.64783 -4.46622 3.59602 
32 2 -7.28341 -8.51333 2.31799 
235 1 -5.0123 -7.19544 3.24258 
238 2 -2.77606 -5.53868 3.20074 
236 2 -0.723253 -5.13789 1.77633 
155 1 -1.36777 -8.14525 2.61526 
150 1 -2.73863 -6.33288 0.396825 
583 2 -0.0989491 -7.06005 0.461688 
283 2 -2.13192 0.90289 0.200709 
224 1 -10.6909 -2.8962 2.77491 
244 2 -13.0583 -1.66738 0.635682 
247 1 -10.6585 -0.550033 0.917972 
245 2 -12.9628 -1.21218 3.16225 
243 2 -10.6531 -0.305686 3.74243 
231 2 -7.86634 -4.13372 2.85975 
251 1 -8.85812 -3.15763 0.408658 
252 2 -6.17867 -2.69147 1.04107 
253 2 -7.56833 -0.604049 0.690401 
254 1 -8.20399 -1.46881 3.35348 
257 2 -5.45718 -2.02477 3.52899 
259 1 -4.38655 -0.468751 1.39732 
258 1 -3.1307 -3.309 1.56966 
260 2 -3.07844 -1.44824 3.67887 
261 2 -1.66959 -0.987794 1.64921 
686 2 -1.0992 -2.86566 3.43422 
608 2 -0.179412 -2.77183 0.969696 
266 2 -13.8258 3.03504 0.614811 
246 2 -13.5417 0.491731 -0.0152315 
469 2 -1.89338 -8.82746 7.87742 
273 2 -9.81712 3.4121 1.77602 
249 1 -12.2771 1.36134 2.26513 
256 2 -9.12642 1.12666 2.33787 
255 2 -6.54055 0.491992 2.56666 
277 2 -5.48737 4.30556 1.17662 
278 2 -6.19477 1.82527 0.629034 
281 1 -7.45121 3.27375 3.0187 
282 2 -4.74166 2.92013 2.89558 
263 1 -2.52866 1.309 3.02494 
285 2 -3.86755 2.44987 0.693563 
708 2 -0.73088 2.42522 1.30439 
287 2 -0.955373 3.30118 3.77634 
339 1 -12.1057 4.67372 2.29553 
342 2 -10.2298 6.30916 0.789559 
355 2 -12.4498 7.17809 1.03147 
345 2 -9.37373 5.32639 3.33071 
356 1 -10.8013 7.91405 2.88005 
280 2 -7.78549 5.0362 1.23847 
365 1 -4.74853 6.62965 2.40592 
360 1 -8.00658 7.68239 2.0438 
361 2 -6.51717 8.62815 4.17455 
300 2 -5.84095 9.12535 1.55327 
286 1 -2.4543 4.5658 2.03651 
305 1 -2.8521 7.82358 0.378114 
307 2 -0.619548 6.72681 1.73717 
367 2 -2.38663 7.1417 3.43491 
786 2 -0.74077 5.57563 4.24721 
227 1 -10.8137 -7.1452 5.08327 
310 2 -11.5195 -4.94695 6.42259 
41 2 -9.48323 -6.22577 7.27821 
315 1 -9.28309 -4.00922 5.26854 
30 2 -8.37593 -8.02633 6.15325 
42 1 -7.02822 -7.29693 8.58447 
36 2 -5.86282 -7.72113 6.12276 
234 2 -7.2219 -5.63763 6.48018 
312 1 -8.28325 -4.27208 8.7525 
318 2 -5.65655 -4.64736 8.0333 
240 2 -4.6629 -5.70629 5.66357 
667 1 -0.348944 -5.31243 4.55783 
35 1 -2.54188 -7.59005 5.36037 
43 1 -3.81879 -6.95222 8.21795 
241 2 -2.25198 -5.26384 6.54433 
753 2 -1.03431 -4.88903 8.63222 
311 2 -10.6652 -2.98776 7.64704 
309 1 -12.3168 -2.49432 5.56282 
323 2 -11.5953 -0.645224 7.66991 
328 1 -9.61649 -0.960215 5.99935 
232 1 -6.44961 -3.19592 5.96959 
313 2 -7.82367 -1.7459 7.87865 
332 2 -6.89497 -0.582832 5.60753 
333 1 -5.37627 -0.448864 7.87769 
689 2 -0.89046 -0.662059 4.46747 
321 2 -3.84176 -3.52398 6.92979 
239 2 -3.47467 -3.77148 4.56105 
671 1 -1.29836 -2.70641 6.49016 
317 2 -3.01167 -1.73314 8.60615 
262 2 -4.24467 -1.66092 5.68264 
335 1 -2.45528 0.107377 6.68305 
324 1 -12.7318 0.547143 5.46411 
343 1 -10.403 2.59631 4.38482 
338 2 -13.1535 2.95609 4.10432 
325 2 -12.3408 3.15161 6.48078 
330 2 -10.6696 1.46898 6.74505 
382 1 -10.0516 3.86748 7.78821 
337 1 -4.90178 0.829439 4.70554 
329 1 -7.86211 1.45706 7.19327 
327 2 -8.06276 1.14105 4.52138 
346 2 -8.48857 3.98405 5.55346 
350 2 -6.05103 3.37712 5.52 
348 2 -7.14615 3.85198 7.75165 
773 2 -0.548707 1.6139 5.50289 
334 1 -4.4125 2.5397 7.51793 
771 2 -1.5421 2.6414 7.96543 
349 2 -2.70397 2.6425 5.49473 
788 2 -0.905755 4.18157 6.17787 
340 1 -11.2009 5.19355 5.31601 
384 2 -10.2918 6.88389 7.54361 
390 2 -8.48765 8.24734 8.09716 
341 1 -9.19236 7.78545 5.22082 
352 1 -5.3934 5.70783 7.02394 
344 2 -8.27103 5.90625 7.0029 
347 1 -6.7554 5.84301 4.32102 
358 2 -6.59795 8.07765 6.54872 
353 2 -2.99798 4.86237 7.79169 
351 1 -3.75824 4.81647 4.70577 
354 1 -1.94434 6.90294 6.24693 
368 2 -4.42108 7.46098 5.13623 
372 1 -3.98045 8.27438 8.10402 
46 2 -6.0237 -5.40312 10.2525 
322 1 -4.87793 -4.03209 12.5179 
319 1 -3.56109 -4.28824 9.69847 
44 2 -4.18416 -7.13108 10.8089 
484 2 -2.71885 -5.5436 12.3273 
485 1 -1.33346 -7.144 10.3584 
314 1 -9.82137 -1.596 9.70472 
40 2 -7.2326 -3.83566 11.4409 
316 1 -5.82155 -2.51911 9.75577 
374 2 -7.82383 -1.54216 11.5657 
326 2 -7.61036 -0.0213867 9.71715 
375 2 -5.73908 -1.45287 12.6995 
320 2 -5.28255 -0.163431 10.8363 
820 2 -2.01626 -3.32702 13.187 
821 2 -1.53493 -0.744417 13.3916 
754 2 -1.2502 -4.15136 10.9958 
755 1 -0.546569 -2.31327 9.49449 
770 2 -0.700549 -0.265063 11.1454 
752 1 -3.15813 -1.71249 11.5492 
331 2 -9.91145 1.11014 9.13168 
373 2 -9.44821 0.650632 11.3456 
380 1 -7.0773 1.6873 12.005 
378 2 -5.97552 1.70354 9.45248 
377 2 -8.39331 2.86716 9.86747 
379 2 -7.8609 4.42174 11.7578 
387 1 -5.74226 4.30705 10.1209 
392 2 -5.20673 3.81077 12.9681 
823 1 -0.319498 2.58457 10.8606 
336 1 -2.85638 0.813838 9.83112 
824 2 -2.14322 1.42971 12.6335 
381 2 -4.26931 2.27446 11.4751 
396 1 -2.71113 4.26517 12.5837 
386 2 -2.8526 3.54194 9.90877 
389 2 -4.45875 8.56103 10.8269 
383 1 -6.59293 7.18403 9.42739 
394 1 -5.80725 6.44756 12.2641 
385 2 -8.71198 5.46272 9.47572 
397 2 -2.06222 8.62762 11.0345 
395 2 -3.22954 7.06603 12.5788 
830 2 -1.22143 6.1866 11.3612 
792 1 -0.432192 4.88849 9.00852 
388 1 -3.59665 6.18328 10.1005 
835 2 -1.39508 7.71482 8.86717 
666 1 -0.0228823 -7.11444 7.43731 
393 1 -4.29746 0.562991 13.656 
838 2 -0.310028 3.10977 13.5458 
147 1 -5.65327 -7.61709 0.162937 
376 2 -3.92673 -2.06947 14.1463 
407 2 -5.05243 10.9767 -6.57001 
404 2 -6.75656 11.2061 -4.85418 
406 2 -3.80664 10.0923 -8.6076 
417 2 0.0147455 12.0762 -5.9587 
412 2 -1.72261 9.05116 -8.95318 
421 2 -2.27706 13.0338 -5.69129 
410 1 -2.32625 10.4944 -6.56433 
289 2 -8.61567 10.5347 -1.72891 
423 1 -4.43667 9.62503 -4.25937 
424 2 -6.70352 9.84028 -2.82521 
427 2 -6.48219 12.1265 -2.64334 
422 2 -7.8853 12.6092 -0.444813 
425 2 -6.3327 10.7881 -0.471152 
429 2 -5.1804 13.1638 -0.94242 
437 1 -0.436024 13.9741 -4.00036 
426 1 -4.34851 12.7847 -4.19515 
428 2 -3.98492 11.1896 -1.82798 
431 1 -1.66504 11.3836 -3.50523 
435 2 -2.58815 9.07045 -2.14327 
430 2 -1.59381 10.7124 -0.682159 
436 1 -2.49 13.4547 -1.18732 
357 1 -8.24982 10.6165 1.31641 
438 2 -6.01198 12.5451 1.25574 
364 1 -6.13586 11.267 3.44049 
359 2 -8.75055 9.90536 3.81797 
879 2 -0.89904 13.1748 5.22493 
434 1 -3.8027 10.768 0.911386 
443 2 -1.50105 12.187 1.17751 
442 1 -2.92916 11.8317 3.93737 
308 1 -1.31781 9.53007 2.63884 
369 2 -4.07042 9.17354 3.30583 
439 2 -3.61749 13.34 1.50881 
433 2 -0.346117 14.2304 0.790161 
441 2 -1.64933 14.0625 2.81162 
363 1 -7.65721 10.6592 6.1143 
440 2 -5.04493 12.698 5.56072 
362 2 -6.37137 9.77376 8.5078 
371 1 -4.73833 10.1132 6.09802 
391 1 -2.76483 10.6437 9.18281 
366 2 -2.29067 11.438 6.8287 
370 2 -2.41735 9.29412 4.99014 
810 2 -1.07147 9.38343 6.99617 
804 2 -0.35558 10.734 5.13338 
882 2 0.0088784 11.7932 7.20134 
491 2 2.82452 -9.42949 -8.8239 
512 2 1.42386 -11.095 -7.9261 
446 1 2.57858 -12.6361 -6.14696 
87 2 0.242527 -10.8526 -5.79413 
514 1 3.25188 -9.3955 -6.04925 
492 2 4.40531 -11.0995 -7.65739 
6 2 -0.0888057 -13.1304 -6.24576 
520 2 6.06381 -9.52599 -6.40149 
518 2 4.71159 -11.314 -4.93262 
455 2 1.63557 -13.7717 -1.33651 
515 2 2.05551 -10.8582 -4.17217 
445 2 0.771614 -12.8153 -3.88009 
447 2 3.2905 -12.8241 -3.4118 
513 2 4.26088 -10.6173 -2.73722 
448 2 1.9137 -11.4926 -1.90302 
585 2 0.978296 -9.556 -0.600838 
449 2 4.02889 -12.5529 -0.94736 
452 2 5.97754 -10.8308 -0.960054 
521 1 6.82751 -9.96482 -3.67637 
450 2 5.83554 -12.6447 -2.70113 
451 1 8.35298 -12.1973 -1.30657 
517 2 7.79455 -9.53311 -1.1813 
598 2 9.95112 -10.109 -0.315314 
525 1 9.83928 -10.0105 -3.14848 
54 2 0.208041 -9.59029 -9.40448 
453 1 0.468355 -14.1327 1.54763 
454 2 3.22532 -13.9014 0.898171 
460 2 0.722448 -10.1524 3.75495 
456 2 0.391237 -12.6075 3.8583 
458 1 2.69007 -11.7646 2.73604 
589 2 1.54734 -9.33113 1.75212 
457 2 1.59117 -12.0504 0.32921 
587 1 3.57319 -10.0193 0.167547 
482 2 8.26614 -10.2734 6.82286 
463 2 4.88514 -11.5914 4.21252 
464 1 7.53077 -10.358 3.86896 
462 2 5.17286 -9.86901 2.53892 
461 1 5.57461 -12.2426 1.44205 
465 2 7.89827 -10.7373 0.959571 
466 2 9.38933 -9.11781 2.11351 
472 1 2.11994 -11.5996 5.75397 
477 1 4.97714 -10.1465 6.25546 
476 2 2.72528 -10.6985 8.26325 
467 2 0.659841 -12.0151 8.05774 
478 2 6.44788 -9.03401 8.52823 
459 1 3.08601 -9.07103 4.12454 
51 2 2.6793 -3.00523 -14.1513 
67 2 0.712392 -0.988248 -14.2388 
490 2 5.18899 -2.4025 -13.808 
71 1 1.84476 1.41999 -14.2178 
72 2 2.2151 4.12476 -13.979 
495 2 4.02595 -7.64658 -10.5519 
62 1 1.52892 -7.3511 -10.1006 
61 2 2.49852 -5.70527 -11.9476 
497 1 3.54649 -4.66297 -9.56652 
60 2 0.744859 -4.56122 -10.021 
493 2 6.62708 -7.79609 -10.1575 
496 2 5.65621 -5.68083 -11.0817 
499 1 7.84131 -5.25611 -9.29073 
66 2 2.16074 -2.63175 -10.6709 
489 2 3.9833 -3.8836 -12.215 
502 1 3.1874 -0.984509 -12.6855 
68 1 0.658887 -3.54219 -12.6392 
119 1 2.5846 -0.335288 -9.31925 
123 1 0.449249 -0.290871 -11.8346 
503 2 4.47872 -2.04884 -10.4219 
547 2 5.91293 -3.44806 -8.9264 
504 1 6.76509 -3.18872 -11.6381 
506 1 9.08951 -0.876786 -10.918 
501 2 6.26456 -0.587463 -12.1715 
505 2 9.5228 -3.83702 -10.7234 
135 2 2.61493 1.47034 -11.6514 
566 2 3.17782 2.56039 -9.53704 
138 2 0.862 1.63296 -9.71201 
137 1 0.70736 3.30877 -11.788 
510 1 4.10003 3.5734 -11.8833 
508 2 4.65884 1.32597 -13.3801 
565 2 4.79786 0.914374 -10.9688 
572 2 8.53066 1.41931 -9.8902 
509 1 7.03279 1.95528 -12.0635 
568 1 5.87824 2.7629 -9.34243 
575 2 8.30537 3.88262 -9.6052 
507 2 10.8286 0.625537 -9.43705 
840 2 2.32687 5.631 -11.8751 
567 2 4.45203 5.18097 -9.77002 
843 1 2.95214 7.84891 -10.1091 
402 2 0.629643 7.32775 -11.7128 
659 1 9.50325 6.6612 -2.20835 
842 2 4.55682 6.54633 -11.7968 
570 1 6.83531 5.15591 -11.1831 
845 2 8.42141 6.45331 -9.6128 
844 1 6.01154 7.78302 -9.37306 
531 2 3.06842 -7.11958 -7.92993 
530 1 2.3411 -6.61717 -5.1615 
527 2 1.48244 -5.45726 -7.8224 
86 1 0.596337 -8.22093 -7.18909 
532 2 3.89159 -4.85247 -6.90223 
498 2 5.3702 -6.31825 -8.62405 
494 2 5.02811 -8.67333 -8.33699 
533 2 5.05509 -7.19891 -6.22012 
535 2 7.21235 -7.64094 -7.48729 
519 2 8.65698 -9.11186 -5.61311 
538 2 7.04432 -7.19061 -5.02894 
539 1 6.5738 -4.80194 -6.64915 
537 1 9.56059 -6.22057 -6.58684 
544 2 11.0894 -8.05318 -5.07263 
500 2 10.3229 -4.61869 -8.61603 
550 2 4.19822 -2.0697 -7.7542 
122 1 1.17588 -2.55046 -8.03018 
529 2 1.83474 -3.99435 -5.85829 
552 2 4.27784 -3.13507 -5.26086 
548 2 2.87699 -1.25868 -5.99204 
536 2 8.23136 -2.51562 -9.03822 
551 1 6.43564 -0.442041 -9.35045 
558 2 6.82725 -2.12295 -7.01827 
556 1 8.23052 -1.16802 -4.75831 
549 2 5.41767 -1.09306 -5.40834 
554 2 8.97711 -3.45077 -6.88053 
559 1 8.90265 -0.022603 -7.60286 
560 1 11.0263 -2.15913 -8.70396 
543 1 11.8718 -4.16365 -6.36399 
562 2 10.6055 -1.73572 -6.09025 
564 1 13.1216 -1.26705 -4.75992 
140 1 1.37986 2.61806 -6.95832 
124 2 1.3159 0.0818107 -7.18043 
553 1 4.22191 0.983444 -7.19668 
644 2 3.49512 3.23608 -5.13849 
569 2 4.04996 4.04164 -7.62023 
626 1 1.97162 0.93267 -4.58071 
571 1 6.20354 3.26133 -5.74263 
557 2 6.82191 0.747387 -6.34821 
576 2 7.90794 2.50062 -7.78582 
580 2 10.5352 -0.0048982 -4.73017 
574 1 9.30508 2.12113 -5.51752 
563 1 11.9847 0.785433 -6.9358 
577 2 10.2506 2.6921 -8.1618 
579 2 11.5753 3.71614 -6.17086 
136 1 1.76336 5.02324 -9.24662 
217 1 0.285233 6.38662 -4.85942 
841 2 3.87276 6.69862 -7.86305 
645 2 2.2867 5.33611 -6.23798 
416 1 1.55409 8.04491 -7.4522 
849 1 3.05664 7.94582 -5.08941 
648 2 4.66387 5.62057 -5.59672 
573 1 6.56436 5.39901 -7.85113 
846 2 8.25827 7.49544 -7.32883 
850 2 5.88185 7.66166 -6.43127 
657 1 7.56604 5.89077 -4.91157 
578 1 9.42758 4.97252 -7.0329 
861 1 10.1556 7.27712 -5.08423 
511 2 0.509789 -8.80748 -4.50236 
582 1 2.43345 -8.64289 -2.63816 
584 2 2.32692 -7.56277 0.0737854 
605 2 2.32037 -6.0228 -2.45285 
594 1 4.41619 -5.96127 -0.53893 
516 2 4.93956 -8.28428 -4.0313 
534 1 4.8763 -5.43512 -3.79503 
522 1 6.926 -7.09217 -2.16954 
596 2 4.75878 -8.46008 -1.59919 
540 1 8.37213 -4.99021 -4.27645 
542 2 11.1502 -5.72471 -4.19957 
523 2 9.13493 -7.46915 -3.74703 
526 2 11.3922 -7.56231 -2.67085 
524 2 9.46009 -7.99767 -1.30907 
615 1 9.49688 -5.35089 -1.48143 
620 1 12.3408 -5.0349 -1.79264 
625 2 1.07674 -1.98356 -4.47522 
528 2 2.69318 -3.97246 -3.46629 
630 1 3.63289 -1.22677 -3.20454 
604 1 1.02634 -2.37962 -1.74949 
606 2 3.89669 -3.26045 -1.27848 
628 1 4.17741 -0.365989 -0.400442 
541 2 6.27828 -3.09264 -4.08266 
611 2 8.3303 -2.88726 -2.45974 
609 2 6.39716 -4.2663 -1.81443 
614 1 6.33577 -1.41652 -1.91005 
639 2 8.97508 -0.495999 -2.02736 
860 2 5.67506 9.22309 -2.69358 
545 2 13.2941 -3.97693 -4.05259 
546 1 10.7337 -3.06803 -3.61384 
621 2 13.0866 -2.28013 -2.15826 
618 1 10.5938 -2.33271 -0.740441 
561 2 11.3725 -0.46811 -2.61598 
627 2 2.06969 0.221499 -1.95356 
629 1 4.07419 2.25315 -2.14821 
631 2 2.32025 1.75716 -0.0614697 
652 2 2.36418 3.95553 -0.978566 
218 2 0.964863 3.59102 -4.43111 
200 1 0.33041 2.31296 -1.85405 
555 2 4.86908 1.07271 -4.3874 
634 2 6.36967 1.18836 -0.612979 
635 2 6.42777 3.57806 -1.05596 
636 1 7.07702 1.31471 -3.27187 
637 2 8.67778 2.25832 -0.984035 
656 2 8.16381 3.78294 -3.06466 
653 2 5.68319 4.37081 -3.20913 
581 1 12.2017 2.05171 -3.98393 
661 2 10.4749 3.78351 -2.18285 
633 2 9.68933 1.63973 -2.94763 
662 2 11.4618 1.73895 -1.36937 
603 1 1.551 -4.85435 -0.172326 
641 1 13.9445 0.335118 -2.05534 
663 2 13.1429 3.51649 -1.70173 
735 1 1.71536 6.51566 -0.530371 
651 2 3.89415 7.64662 -2.0098 
646 2 1.39275 7.8634 -2.81911 
649 1 2.9824 5.28068 -3.32718 
650 2 4.54439 5.0211 -0.940479 
219 2 0.574703 5.079 -2.38239 
178 1 0.0149914 -4.58879 -3.57105 
654 2 8.85328 4.62493 -0.494486 
859 2 7.69173 8.43756 -3.73092 
658 1 6.55082 6.46778 -1.63026 
647 2 5.44355 7.24833 -3.95061 
660 2 11.7319 5.46975 -0.969819 
655 2 9.81787 4.47134 -4.49423 
664 1 12.2396 5.21072 -3.64589 
876 2 10.4669 8.54646 -0.143481 
862 2 12.1147 7.6125 -2.25872 
588 1 1.51551 -6.69742 2.63685 
586 2 3.72068 -4.85095 1.96406 
590 2 3.94323 -7.71644 1.75534 
676 2 4.0133 -6.34344 3.88023 
709 2 0.540528 4.26739 0.492939 
595 2 5.75082 -8.16798 4.05145 
593 2 7.85661 -7.51387 3.12551 
592 2 5.89078 -6.08361 2.23561 
613 1 8.10325 -4.6651 2.55938 
591 1 6.55066 -8.35328 0.744312 
600 2 8.93785 -7.03032 0.714394 
597 2 7.03466 -5.58383 0.0656172 
679 1 12.1705 -6.10501 4.46293 
599 2 10.1235 -6.62441 2.61551 
602 2 11.7343 -8.39278 3.106 
616 1 11.2624 -4.73743 1.12944 
601 1 11.5312 -7.85458 0.343217 
670 2 2.66362 -4.30556 4.45842 
687 2 1.15742 -3.97438 2.53834 
691 2 0.769634 -1.16555 2.79474 
692 2 2.98002 -1.89623 3.58968 
607 1 2.60043 -2.38958 0.985373 
710 1 0.371206 -0.0495415 0.271601 
693 1 5.26477 -3.65072 3.98656 
696 1 5.19514 -0.612321 2.43244 
697 2 7.35759 -2.00301 3.27204 
632 1 7.71586 -0.630524 0.804196 
610 1 5.70502 -3.19781 0.917575 
703 2 9.89338 -1.79165 4.42447 
701 2 10.5809 -3.92938 3.64969 
619 2 9.53068 -2.10236 2.07536 
617 2 11.9646 -2.18983 2.06508 
623 2 13.1644 -4.0907 3.07505 
622 2 13.2752 -3.02458 0.17219 
827 1 5.36577 -1.60785 13.908 
624 2 13.8179 -0.489137 2.05138 
711 2 2.61337 0.379881 2.02576 
713 2 0.246791 1.14099 3.11749 
714 2 3.46376 1.80506 3.61618 
715 2 1.86384 2.58628 1.98746 
712 1 1.65661 3.34535 4.62721 
699 1 8.29257 0.389785 3.83532 
718 1 4.73403 2.30975 1.15599 
719 1 4.84693 4.10023 4.12413 
720 2 5.86113 1.78971 3.5692 
721 1 7.78845 2.41954 1.4335 
722 2 7.5281 3.31711 4.11199 
727 2 10.0819 2.72556 3.32407 
728 2 12.7894 2.57513 2.64522 
726 1 11.1752 0.4579 2.41027 
723 1 10.8823 3.32901 0.844571 
642 2 13.1842 1.61171 0.37661 
706 2 13.2231 0.6847 4.0304 
643 2 13.3476 4.30084 0.792543 
716 2 0.772795 5.12023 2.6051 
733 1 3.14896 4.92173 1.50953 
734 1 1.80887 7.98797 2.21716 
736 2 4.29006 7.20216 0.435018 
811 2 2.58056 6.18333 4.27466 
822 2 2.59107 -0.680858 13.5421 
741 2 4.36696 6.7496 2.85146 
740 1 6.45919 5.18323 1.34077 
744 2 6.46807 8.01527 1.20699 
743 2 8.47947 6.9859 0.588574 
739 2 7.08736 5.72263 4.08143 
750 2 8.55524 7.36023 2.979 
746 2 8.99688 4.87401 2.47562 
732 2 11.8511 4.66076 3.31629 
747 2 10.649 7.09278 4.17022 
798 1 6.70111 4.85381 9.697 
665 1 11.0335 6.28407 1.42737 
470 2 0.310521 -8.07644 4.95305 
668 2 2.10655 -6.54117 5.49113 
673 2 2.849 -6.43282 7.8075 
474 2 2.26598 -8.74936 6.86041 
677 2 4.20901 -5.06422 6.24135 
479 2 4.06899 -8.57453 8.5198 
475 2 2.02568 -7.88765 9.36877 
799 2 5.00305 6.83852 10.1778 
678 1 6.74079 -5.90315 5.12768 
672 2 4.39049 -7.49494 6.0828 
480 2 6.96556 -8.36682 6.06609 
674 1 5.99343 -6.3887 8.16241 
682 2 8.77335 -4.97725 6.96242 
481 1 8.77526 -7.63367 7.91489 
681 2 9.36075 -5.683 4.86727 
680 1 9.81772 -8.38826 4.97606 
683 2 10.8174 -6.44942 6.81144 
669 1 1.38321 -4.34728 7.02304 
765 2 3.83373 -4.35627 8.55071 
690 2 0.90953 -2.56727 4.77807 
769 2 1.22255 -1.75036 7.19935 
694 1 3.69537 -2.28452 6.33388 
698 2 4.45307 -0.0897308 4.85433 
700 2 8.26422 -3.33178 5.1755 
695 2 6.3754 -1.18987 5.35412 
675 1 6.37669 -3.41031 7.30153 
779 1 5.56146 -0.0322657 7.54822 
704 1 8.66032 -0.566725 6.84737 
707 1 12.7715 -1.90623 4.67029 
684 1 11.1325 -3.80057 6.24838 
705 2 11.2451 -1.35852 7.14616 
837 2 9.1158 -2.93953 8.39486 
775 2 2.80623 0.0476246 7.75413 
688 1 1.7146 0.0654073 5.24406 
772 1 0.100306 0.583154 8.15401 
789 1 1.27301 2.899 7.60584 
797 1 4.09536 2.21909 6.30025 
794 2 4.30654 3.99328 8.64495 
780 2 6.13602 2.46317 8.30015 
717 2 6.99494 1.66424 5.94077 
800 1 8.70837 3.10639 7.9398 
795 1 6.60877 4.63615 6.59559 
724 2 10.9974 0.202983 5.26509 
729 1 12.121 2.84587 5.24819 
702 2 13.055 0.458725 6.63178 
725 2 9.39965 2.09771 5.55128 
751 2 10.9585 1.29037 7.47468 
802 1 11.1896 4.36304 7.81203 
793 2 3.44429 4.90175 6.33505 
805 2 0.718014 7.55748 7.891 
791 2 0.989942 5.67471 6.31711 
806 1 0.486481 7.98131 4.97441 
808 2 2.84502 7.259 6.55799 
790 1 2.47331 5.56402 9.19597 
796 2 4.72502 6.29938 7.90271 
814 2 5.14473 6.60054 5.27516 
815 2 5.09068 8.39131 6.69829 
816 1 7.90453 7.47551 6.12408 
813 2 6.86503 7.73935 8.53992 
803 2 8.62293 5.83713 7.96359 
730 1 9.55105 4.78072 5.20914 
731 2 12.1904 5.65382 5.55712 
745 2 10.5289 6.84237 6.79067 
756 1 1.19394 -5.06768 10.1185 
486 2 1.34572 -7.29956 11.5531 
487 1 -0.0904797 -5.35973 12.9874 
763 2 2.65523 -5.38168 12.6377 
488 1 4.07803 -6.48241 10.5428 
685 2 8.08588 -5.0708 9.28449 
767 2 6.87548 -6.33806 10.6555 
764 1 5.69459 -4.53227 12.5089 
758 2 2.13224 -2.60432 9.32976 
761 2 3.69197 -3.70286 10.93 
762 2 3.31077 -3.16505 13.3782 
757 1 0.783642 -2.36137 12.2768 
774 2 3.61307 -1.38577 11.5721 
766 2 4.57898 -2.06031 9.14149 
782 2 7.12442 -1.63916 9.37244 
759 2 5.94137 -4.11904 9.92122 
760 2 5.81609 -2.21369 11.4034 
784 1 7.63716 -0.0557449 12.0278 
768 1 8.29694 -3.23541 11.2366 
785 1 9.88322 -0.456659 9.74183 
825 2 0.502581 0.771476 13.0194 
826 1 1.99104 0.374796 10.6128 
776 2 4.12776 1.79898 9.32529 
839 2 1.91851 2.54525 12.6137 
787 2 2.33198 3.19803 10.2882 
833 1 4.29309 4.38793 11.5199 
828 1 4.28795 1.17721 12.6658 
778 2 5.24131 -0.0276348 10.4173 
783 2 7.60333 0.719699 9.25911 
777 2 6.2492 2.22348 10.8961 
829 2 8.56493 2.36642 10.6704 
801 2 9.31834 4.72483 10.0255 
781 2 10.6873 2.37273 9.63315 
818 1 3.27615 8.6249 8.89857 
832 2 0.702257 7.24392 10.2992 
834 2 2.9657 6.94815 11.6232 
831 1 1.10131 5.10789 12.0122 
612 2 8.16574 -3.29859 0.0187856 
640 2 9.98357 0.377017 -0.0611899 
638 2 12.469 -0.542811 -0.00773932 
403 2 0.526875 9.24268 -10.04 
851 2 4.14288 9.13908 -7.46046 
419 2 2.32499 10.1921 -8.76473 
848 1 2.53819 11.2373 -6.20464 
415 1 0.370655 9.60698 -4.90554 
414 2 0.125319 10.3478 -7.64372 
854 2 4.24173 12.4687 -4.67343 
853 2 5.02569 11.5372 -7.50139 
857 2 6.66899 9.74185 -7.92355 
855 1 8.49252 9.76855 -5.81667 
852 1 5.42997 10.0807 -5.27168 
420 2 2.06064 13.6472 -5.02016 
864 1 3.06144 10.1288 -3.14187 
847 2 1.25791 11.9024 -3.81028 
432 2 0.464641 10.0369 -1.94335 
865 1 0.298369 12.734 -1.39459 
868 2 2.92202 11.6804 -0.618394 
863 2 2.38252 9.1342 -0.368627 
856 2 7.31011 10.9384 -3.3213 
870 2 5.23717 11.7132 -2.3986 
872 2 7.14254 11.6521 -0.324473 
742 1 7.85715 9.0449 -1.11128 
871 1 4.99184 9.91094 -0.204135 
858 1 10.1552 9.51677 -2.77774 
873 2 9.78103 11.022 -0.535708 
877 1 3.15891 13.6161 -2.39289 
867 1 0.771244 10.7563 0.951873 
866 1 3.18671 11.1812 1.99506 
883 2 1.29502 10.2689 3.73388 
444 1 0.613613 12.8738 3.04464 
836 1 0.243085 10.0104 9.42906 
874 2 6.04833 11.0664 2.07113 
878 1 4.85026 13.142 0.437972 
875 1 8.5131 9.9456 1.67918 
812 2 7.6598 11.3817 3.97666 
884 1 4.92061 11.8529 4.34263 
748 2 9.07148 9.27039 4.33998 
869 2 1.99288 13.4962 0.629089 
881 2 3.21946 13.5953 2.92637 
809 1 3.46095 9.19357 4.75153 
819 2 4.16818 10.6308 6.88677 
880 1 2.18694 12.1009 5.47153 
807 2 1.41667 9.86055 6.86928 
817 1 6.82425 10.4215 6.37995 
737 1 6.31333 8.96648 3.9178 
749 2 10.6424 8.83529 2.36062 
738 2 4.24255 8.97344 2.13812 
