ITEM: TIMESTEP
80000
ITEM: NUMBER OF ATOMS
884
ITEM: BOX BOUNDS pp pp pp
-2.7057867000000002e+01 2.7057867000000002e+01
-2.7057867000000002e+01 2.7057867000000002e+01
-2.7057867000000002e+01 2.7057867000000002e+01
ITEM: ATOMS id type x y z 
107 2 -4.53076 -9.27332 -9.04552 
58 2 -1.80072 -12.2329 -3.82724 
93 2 -4.95604 -11.2488 -7.56277 
91 1 -5.86849 -10.665 -5.20454 
90 2 -8.6514 -9.63267 -5.0359 
92 2 -6.63818 -9.38157 -7.6674 
109 2 -2.52132 -10.4636 -8.12082 
55 2 -3.20623 -11.6278 -5.91014 
116 2 -0.576367 -10.9854 -6.63253 
99 1 -1.36964 -9.44523 -4.45398 
56 2 -2.5872 -13.9055 -2.36314 
52 2 -0.301761 -13.5753 -1.72454 
101 1 -0.270067 -9.2824 -0.0920039 
73 2 -9.32973 -11.4178 -0.458839 
144 1 -9.952 -9.44039 -2.4144 
95 2 -3.66469 -10.6483 -3.83947 
81 2 -4.98422 -12.2734 -2.93085 
74 1 -7.72773 -11.51 -2.87903 
77 2 -4.42302 -13.1088 -0.664707 
82 1 -5.21674 -9.97778 -1.53574 
79 2 -7.68181 -9.74093 -0.648804 
98 1 -2.46571 -11.486 -1.2875 
78 1 -5.22823 -13.5393 1.94201 
3 2 -5.80294 -9.20347 4.3409 
63 1 -8.43683 -10.5385 1.97784 
2 2 -5.94544 -11.2443 2.88251 
54 2 -0.255609 -13.1182 2.37833 
85 1 -3.30072 -9.59439 3.05678 
83 1 -2.76606 -12.6643 3.35767 
84 2 -1.93119 -11.2585 1.3163 
76 2 -4.32269 -11.256 0.964698 
88 2 -3.17657 -9.1786 0.342382 
86 1 -0.127919 -10.4303 3.23503 
1 1 -8.03457 -10.4065 5.02652 
4 2 -6.10746 -9.77069 6.93567 
5 1 -4.8267 -11.5989 5.34464 
6 2 -2.858 -13.0029 6.36429 
512 2 -0.732079 -12.5578 4.86773 
87 2 -2.13711 -10.6553 5.42173 
515 2 -1.38704 -8.98539 7.10225 
445 2 -3.52786 -10.1925 7.79656 
446 1 -0.849332 -11.5629 7.66879 
447 2 -1.42365 -9.64444 9.65065 
53 1 -1.9992 -13.9557 0.489716 
12 2 -10.5401 -9.61836 0.23098 
75 1 -6.72518 -12.184 0.0640214 
157 2 -8.39092 -6.48141 -9.68668 
179 2 -6.44558 -5.98229 -11.1072 
108 2 -4.42489 -7.54184 -10.8593 
184 2 -4.47209 -5.09384 -10.4189 
141 1 -1.85377 -6.15276 -11.1473 
264 2 -9.7948 -2.9175 -9.84482 
265 2 -8.89919 -0.556341 -10.0223 
180 2 -7.84337 -1.93947 -11.5214 
188 2 -5.62887 -2.92872 -11.8363 
183 1 -7.12455 -3.85373 -9.52694 
267 1 -6.15517 -0.691343 -9.79859 
288 2 -6.15029 -0.530328 -12.7618 
185 2 -4.19988 -2.85803 -9.78819 
203 1 -1.46536 -1.64188 -13.3237 
206 2 -3.91391 -1.22676 -11.5919 
204 2 -3.0742 -3.62135 -11.9681 
189 2 -2.3279 -4.15745 -9.35585 
205 2 -0.648409 -3.73847 -11.38 
207 1 -1.54005 -1.54397 -10.0927 
266 2 -10.2846 1.69846 -10.0118 
269 1 -7.33064 1.67713 -11.4174 
292 2 -4.67061 1.0696 -11.4319 
355 2 -8.47261 4.28131 -11.3563 
342 2 -6.5285 3.57345 -9.3928 
290 1 -5.60488 4.54554 -12.0524 
270 2 -5.37251 1.58942 -8.75736 
291 2 -5.51738 1.94365 -13.4599 
294 2 -4.06209 3.0289 -10.3054 
271 2 -3.30497 0.353707 -9.29176 
293 1 -2.02503 0.877815 -12.1679 
296 2 -0.432592 1.12047 -9.95191 
289 2 -3.51813 2.99601 -12.6402 
299 2 -1.76729 3.3121 -10.7769 
422 2 -1.22671 3.64125 -13.32 
356 1 -7.21415 6.30924 -10.2489 
359 2 -4.53304 7.6041 -10.6151 
357 1 -2.78088 5.58817 -12.0475 
425 2 -0.0340911 4.90891 -11.5875 
438 2 -0.154531 7.01784 -12.4959 
364 1 -1.63974 7.70785 -10.2617 
300 2 -1.44823 5.19713 -9.18584 
94 2 -10.7195 -8.48743 -4.97852 
156 2 -10.8375 -6.13458 -6.16823 
160 2 -9.24216 -4.9232 -7.96286 
221 2 -12.5231 -4.71912 -4.92005 
159 1 -8.84392 -7.7287 -7.19625 
182 1 -6.12138 -6.91152 -8.52074 
162 2 -6.49287 -7.90864 -5.77423 
161 1 -7.11693 -4.98425 -6.58035 
158 1 -8.60524 -6.78099 -4.44899 
133 2 -0.555767 -5.65701 -8.5354 
181 2 -4.65055 -6.21819 -6.1604 
106 1 -3.11904 -6.85589 -8.44301 
110 1 -3.8997 -8.92512 -6.35075 
115 1 -0.727154 -8.24127 -7.13325 
114 2 -2.47274 -6.98661 -5.27091 
192 1 -2.20593 -4.66295 -6.66098 
186 2 -4.71844 -4.50503 -8.14808 
242 1 -11.3668 -3.61632 -7.58187 
244 2 -11.2726 -1.15849 -6.5428 
163 1 -9.63447 -3.79932 -5.07685 
246 2 -10.8531 -0.715328 -8.92487 
247 1 -9.3491 -0.582669 -4.91 
248 1 -8.55891 -1.77059 -7.73666 
190 2 -4.84699 -3.72697 -5.84455 
187 2 -5.96957 -2.26953 -7.63614 
276 2 -4.83615 -1.26758 -5.28976 
250 2 -7.194 -2.4067 -5.35466 
272 1 -6.5697 0.373404 -6.55216 
193 1 -3.22216 -1.86502 -7.50158 
210 2 -1.0444 -2.32835 -6.02622 
209 2 -0.158008 -2.96834 -8.27798 
191 2 -3.0277 -2.87179 -4.70328 
297 2 -1.11163 0.135039 -7.62444 
275 1 -2.07111 0.0171087 -5.18485 
249 1 -10.0451 1.32825 -7.06211 
339 1 -9.20995 4.03242 -8.87095 
343 1 -9.29204 3.95856 -5.63144 
338 2 -11.7058 3.272 -8.31421 
324 1 -12.2241 3.24537 -5.73549 
245 2 -12.2036 0.364454 -4.87659 
268 2 -7.90496 1.18591 -8.79541 
273 2 -7.38057 2.87528 -7.13204 
280 2 -4.77979 3.51978 -7.45957 
278 2 -4.58323 1.21137 -4.58529 
281 1 -5.78097 3.83971 -5.1457 
256 2 -8.11747 1.8596 -4.70272 
279 2 -3.88198 1.04622 -6.95241 
302 2 -0.702457 2.20658 -5.93202 
298 1 -2.06645 2.74037 -8.18448 
277 2 -3.05684 2.93483 -5.44153 
325 2 -11.1588 5.31378 -7.10145 
330 2 -10.5783 6.10855 -4.86269 
340 1 -8.84725 6.83712 -7.22812 
360 1 -4.28486 5.46832 -9.12513 
345 2 -6.80681 5.13504 -7.70966 
347 1 -5.23674 6.7366 -6.07571 
341 1 -6.31738 8.1137 -8.56942 
346 2 -7.7362 5.84537 -4.88819 
369 2 -0.526083 7.39094 -7.78739 
365 1 -2.54472 5.47406 -6.578 
361 2 -3.50345 7.77526 -8.18465 
368 2 -2.27318 8.12262 -6.12589 
367 2 -0.439108 6.85091 -5.12543 
142 1 -11.7041 -6.75712 -3.32557 
145 2 -9.50423 -6.94117 -1.78461 
143 1 -11.8073 -7.07938 -0.140993 
220 2 -12.6595 -4.63005 -1.95834 
225 2 -10.3851 -4.4865 -2.74688 
228 1 -9.62217 -4.76189 -0.258928 
167 2 -6.26807 -5.65812 -4.05444 
149 1 -6.85871 -7.14782 -1.49474 
165 2 -7.85615 -4.73089 -2.38799 
166 2 -4.94294 -5.27206 -2.02624 
89 2 -7.11714 -8.92417 -3.33062 
96 1 -4.42355 -7.88607 -3.56954 
169 2 -3.87144 -5.15014 -4.19037 
171 1 -1.67615 -6.58748 -2.64195 
104 2 -1.92104 -7.09366 0.0028209 
170 2 -4.0649 -7.34829 -0.901397 
97 2 -2.47045 -9.01803 -1.96298 
176 2 -0.784261 -4.33953 -0.956676 
226 2 -13.7517 -0.39472 -3.0463 
223 2 -13.5433 -2.25531 -1.29277 
230 2 -11.1005 -2.71206 -1.2533 
222 1 -11.9183 -2.32014 -4.05887 
224 1 -11.1682 -0.166672 -2.31348 
251 1 -8.65916 -2.06225 -2.24277 
168 1 -5.70418 -2.93202 -3.21695 
253 2 -6.55037 -0.24178 -3.81419 
252 2 -6.50861 -0.947796 -1.14958 
164 1 -6.52395 -3.60708 0.0736944 
174 2 -4.41566 -2.40931 -0.987346 
196 2 -1.20868 -4.64473 -4.2 
172 2 -2.69368 -3.89111 -2.38097 
177 1 -1.91547 -1.99521 -0.315137 
274 2 -3.28604 -1.24927 -2.93967 
197 1 -0.676331 -2.24668 -3.35244 
311 2 -13.9324 2.92796 -0.0808299 
310 2 -13.7617 0.266802 -0.671549 
309 1 -13.1111 2.25685 -2.90953 
243 2 -10.5251 1.79202 -4.16093 
328 1 -10.5654 4.00853 -2.73549 
337 1 -5.92245 3.82123 -1.01075 
255 2 -6.17536 1.98582 -3.0339 
327 2 -7.87926 4.05184 -3.27528 
254 1 -8.68221 1.27608 -2.16967 
259 1 -4.41675 0.496085 -1.60547 
332 2 -8.53492 3.65639 -0.904546 
286 1 -0.983416 4.16255 -4.02633 
282 2 -3.92427 3.89016 -3.09836 
326 2 -10.0867 6.75089 -0.160161 
283 2 -1.38844 0.320032 -1.84943 
285 2 -2.61686 1.72088 -3.23758 
708 2 -0.26878 2.53687 -1.59961 
263 1 -2.76361 3.06042 -0.665456 
373 2 -12.3218 8.07723 -0.700562 
314 1 -12.4929 5.30148 -0.725037 
353 2 -3.3968 8.34051 -1.7313 
382 1 -9.12668 8.54218 -4.71325 
323 2 -12.852 5.0398 -3.41233 
331 2 -11.358 6.89146 -2.58141 
378 2 -8.12478 8.38073 -0.416888 
334 1 -5.72805 7.34018 -1.19704 
350 2 -5.66633 5.67476 -3.23963 
348 2 -6.67377 7.76564 -3.94043 
329 1 -8.6307 6.36282 -2.3714 
315 1 -11.5712 2.01563 -0.112953 
349 2 -3.62198 5.64754 -1.22848 
788 2 -1.34636 7.38368 -0.893115 
351 1 -2.72253 6.3422 -3.63846 
287 2 -1.15009 5.10689 -1.45501 
111 1 -2.11066 -8.89625 -10.1635 
377 2 -9.8184 8.83352 -2.20786 
352 1 -4.32287 8.84026 -4.20151 
354 1 -1.19853 8.94734 -3.35057 
231 2 -9.45343 -0.0297541 -0.0564575 
257 2 -6.68502 1.37469 -0.0815144 
14 2 -10.6325 -6.02335 2.14222 
11 2 -12.7331 -6.92058 2.53193 
28 2 -12.1242 -4.70233 3.77245 
16 1 -10.626 -8.65061 3.09411 
146 1 -8.9519 -7.64668 0.729637 
148 2 -5.83145 -6.11866 0.874515 
147 1 -8.02708 -5.39708 2.3879 
152 1 -5.41412 -6.75514 3.45375 
17 2 -7.79149 -8.02954 3.26228 
80 1 -5.9039 -8.82986 1.31261 
151 1 -2.43783 -5.8791 4.12823 
154 2 -3.41797 -7.09443 1.6536 
100 2 -1.26078 -8.11102 2.21389 
178 1 -0.663257 -5.36743 1.73997 
511 2 -1.31917 -8.41646 4.75665 
173 1 -3.45711 -4.65985 0.267508 
13 1 -12.612 -4.15061 0.820478 
32 2 -10.3157 -3.43039 2.32621 
227 1 -11.9077 -0.968668 0.734458 
29 2 -12.9952 -2.53644 2.99682 
30 2 -12.3911 -0.382978 3.56394 
229 1 -9.7477 -0.486108 2.83608 
233 2 -8.92718 -2.14358 0.580106 
235 1 -7.81081 -2.68174 3.10491 
237 2 -7.3546 -0.46993 1.36488 
238 2 -5.89644 -0.946474 3.7053 
150 1 -5.01828 -3.83077 3.02817 
258 1 -4.63661 -1.15333 1.26304 
175 2 -2.38624 -3.31659 2.23914 
236 2 -3.54566 -1.48985 3.98795 
608 2 -1.75953 -0.839771 2.18818 
603 1 -0.976567 -2.62054 4.35467 
41 2 -13.6812 1.06989 1.85664 
234 2 -11.3911 1.49414 2.55278 
312 1 -12.4957 3.95344 2.29064 
778 2 -0.0344413 9.01875 6.95949 
774 2 -2.42852 8.99689 7.72315 
232 1 -8.91225 2.2834 1.43147 
239 2 -6.06443 1.2913 2.75842 
513 2 -0.0535362 -7.62996 8.88892 
262 2 -6.67528 3.37553 1.69186 
260 2 -4.69946 2.26123 0.910386 
671 1 -5.0929 3.45939 3.98868 
240 2 -8.44911 1.34674 3.91205 
321 2 -7.90074 3.58246 3.75276 
686 2 -3.65359 1.04696 2.87516 
261 2 -2.52606 0.683192 0.497036 
691 2 -1.2492 1.72228 2.24899 
713 2 -0.471682 3.44181 0.726004 
689 2 -2.96774 3.44333 2.13026 
690 2 -2.36909 2.6739 4.36681 
313 2 -10.4019 4.47336 0.327512 
374 2 -11.7319 7.06229 1.57413 
316 1 -10.0553 5.6021 2.92037 
375 2 -10.6964 8.39609 3.41838 
40 2 -12.314 6.48067 3.97114 
820 2 -8.10729 8.97147 7.13665 
320 2 -8.88494 7.80714 1.9016 
333 1 -7.75253 5.63862 0.764146 
336 1 -6.03284 8.08696 1.84576 
317 2 -6.81076 5.61094 3.21595 
335 1 -4.56599 5.34851 1.37166 
688 1 -0.583886 4.85998 2.94626 
773 2 -2.07989 5.48772 0.766744 
771 2 -3.3879 7.82002 0.545414 
789 1 -0.598212 7.86165 1.78429 
772 1 -3.27251 7.29621 3.18089 
19 1 -9.59963 -5.5928 4.7979 
15 2 -11.723 -7.15337 4.99065 
18 2 -9.56316 -8.20525 5.73066 
10 2 -10.1976 -6.52033 7.4868 
20 2 -6.94921 -4.74755 4.97881 
22 1 -6.96262 -7.18711 5.98954 
23 2 -8.31512 -5.07506 7.26904 
24 1 -5.92166 -5.01318 8.37045 
153 2 -4.82244 -5.3056 5.61828 
8 1 -8.12739 -7.88121 8.34148 
21 2 -5.14237 -7.77077 8.01439 
448 2 -2.48819 -7.77497 8.55474 
585 2 -3.21308 -5.86013 7.41897 
7 1 -3.79458 -8.21482 5.85014 
582 1 -0.508751 -6.50757 6.45672 
25 2 -11.7502 -4.93224 6.20712 
38 2 -10.3311 -3.80574 7.63167 
27 2 -12.2364 -2.70309 7.15538 
31 1 -10.9165 -2.35304 4.90364 
39 1 -10.4517 -0.59687 7.54156 
471 1 -7.90564 -2.40563 8.31548 
37 2 -8.62481 -3.05966 5.75334 
35 1 -8.02528 -0.463156 5.55565 
155 1 -5.66257 -2.43887 6.0382 
470 2 -5.09874 -0.573226 8.1091 
583 2 -3.42376 -3.53384 5.28313 
584 2 -1.45306 -3.96812 6.59437 
589 2 -3.7708 -3.33673 7.97329 
590 2 -0.740126 -2.23985 8.31983 
588 1 -2.62952 -1.15898 6.65857 
33 2 -12.8627 -0.436649 6.10698 
36 2 -10.8544 0.681249 5.02144 
42 1 -13.1931 2.09006 4.28511 
318 2 -10.3818 2.99864 3.90666 
45 1 -12.0558 2.11343 7.00104 
43 1 -9.28113 2.47354 6.42287 
241 2 -6.86828 2.0967 5.63998 
753 2 -6.35199 4.18362 6.51653 
666 1 -5.98846 2.10948 8.2328 
469 2 -8.03398 0.507541 8.06167 
687 2 -1.75962 0.251055 4.47908 
676 2 -0.898756 0.256004 8.3145 
668 2 -3.26101 1.09128 8.2789 
667 1 -4.41924 0.950503 5.56394 
694 1 -0.712333 4.38706 6.05766 
670 2 -1.57443 1.54616 6.33445 
669 1 -3.59475 3.61517 6.75778 
677 2 -1.32405 2.70348 8.50087 
44 2 -10.5854 4.64712 7.80528 
46 2 -11.5918 4.52306 5.37522 
322 1 -10.6288 7.23317 6.00162 
484 2 -9.23081 7.0577 8.11061 
319 1 -8.66252 5.13372 5.6931 
755 1 -5.31006 6.33035 5.33554 
752 1 -7.86963 7.90048 4.39765 
757 1 -5.33354 8.91113 7.16958 
754 2 -7.11955 6.67074 7.14088 
756 1 -4.99312 5.50223 8.71043 
485 1 -8.12608 4.65085 8.77397 
769 2 -2.96322 5.06301 4.45879 
758 2 -2.95325 6.56064 6.51061 
775 2 -1.06726 6.8807 4.68897 
766 2 -0.851283 6.85065 7.56672 
453 1 -6.39207 -6.84822 10.6799 
9 1 -8.98392 -5.07304 9.88835 
587 1 -1.40789 -4.99067 9.27306 
457 2 -3.92607 -6.38489 9.71102 
454 2 -3.93001 -6.8762 12.0893 
449 2 -1.74487 -7.31486 10.934 
461 1 -1.31578 -5.17412 12.4358 
455 2 -3.98718 -8.68099 10.3877 
26 2 -10.1327 -2.64826 9.64819 
34 1 -9.62774 -0.137025 10.3598 
456 2 -6.76444 -4.14643 11.0028 
468 2 -8.08615 -2.20015 11.1746 
467 2 -7.69581 -0.0311372 12.3942 
473 2 -6.74184 -0.382419 10.0525 
460 2 -5.52151 -2.47676 9.49572 
472 1 -5.21497 -1.3376 11.9477 
458 1 -4.00603 -4.15618 11.0231 
462 2 -1.31611 -2.93725 10.9339 
463 2 -2.73811 -2.78563 12.9035 
477 1 -2.40089 -0.0656575 12.5715 
459 1 -3.03447 -1.35987 9.78538 
595 2 -0.417946 -0.856998 10.4505 
47 2 -10.0645 2.21359 8.89627 
476 2 -5.7186 1.5191 12.3139 
483 1 -7.68597 2.19171 10.6569 
475 2 -5.48587 3.80403 10.8957 
474 2 -4.55579 0.902874 10.311 
672 2 -1.88725 1.17386 10.3082 
674 1 -0.894008 3.69659 11.2965 
479 2 -3.46416 2.50082 12.1392 
673 2 -3.53323 3.14768 9.53823 
486 2 -6.5039 5.78144 11.0964 
487 1 -6.96811 7.9918 9.56811 
763 2 -4.86793 7.54515 10.8225 
760 2 -0.606286 8.49661 9.35704 
761 2 -2.93569 7.25573 9.25138 
764 1 -2.30211 8.56564 11.5035 
765 2 -2.03811 5.00339 8.54792 
767 2 -1.09148 6.39896 12.7164 
488 1 -3.43466 5.47433 11.4759 
759 2 -0.890698 6.2369 10.3618 
770 2 -5.23783 8.99698 4.31722 
478 2 -1.44862 2.12361 13.4977 
363 1 -4.30565 10.0745 -9.62051 
384 2 -8.69491 9.69595 -7.18257 
344 2 -6.76214 9.27865 -5.83072 
390 2 -6.31497 11.0049 -7.86555 
358 2 -4.45574 9.55328 -6.87373 
383 1 -5.48161 11.5835 -5.2234 
362 2 -3.77586 11.8443 -7.42665 
371 1 -1.7682 9.98878 -8.09936 
370 2 -0.0153136 9.24035 -5.92119 
372 1 -2.51506 10.8467 -5.29489 
391 1 -1.24296 13.3401 -4.86253 
379 2 -9.36416 10.9185 -3.1158 
387 1 -6.98886 9.95831 -2.50709 
385 2 -8.1783 11.2448 -5.13255 
394 1 -7.10574 12.6278 -3.00523 
392 2 -8.69327 11.3267 -0.929594 
386 2 -4.98088 9.87168 -0.233059 
389 2 -3.7425 13.4281 -4.10459 
792 1 -1.85028 10.0218 -0.287422 
388 1 -4.08881 11.1617 -2.51014 
835 2 -1.54821 11.5291 -2.82117 
832 2 -0.872806 12.442 -0.731944 
395 2 -4.70096 13.738 -1.78064 
397 2 -2.25474 13.8003 -2.29789 
830 2 -3.34761 12.4077 -0.100952 
380 1 -10.5146 9.50194 0.674801 
396 1 -5.9684 12.37 0.150671 
381 2 -7.2356 10.1686 0.559293 
824 2 -6.06646 11.0257 2.74725 
393 1 -8.5936 10.2978 2.88438 
762 2 -4.25803 9.39888 9.62961 
787 2 -0.976255 10.3674 2.63514 
828 1 -1.03577 11.4701 6.47278 
831 1 -1.52268 12.9279 1.81538 
823 1 -3.49317 10.2005 2.28153 
838 2 -4.26785 12.7919 2.37572 
376 2 -9.49377 9.81935 5.5327 
827 1 -1.78125 10.8835 9.4449 
821 2 -7.02461 10.5028 5.07858 
825 2 -4.704 11.2267 5.109 
826 1 -2.5939 9.36388 5.11248 
839 2 -2.45664 11.9848 4.26898 
822 2 -3.57601 11.1499 7.29205 
69 2 3.06252 -10.7598 -9.26064 
112 1 0.306656 -10.4269 -9.23984 
64 1 1.88709 -12.0125 -7.28737 
65 2 2.84319 -11.6447 -4.38985 
113 2 0.508424 -12.4597 -5.03134 
117 1 1.59237 -9.56157 -5.49704 
128 2 6.97863 -9.71129 -8.29131 
70 1 4.62301 -10.7236 -6.95455 
71 1 7.75308 -10.4982 -5.63463 
67 2 5.58957 -12.0569 -4.43755 
123 1 4.88552 -9.41616 -4.62207 
50 2 1.96872 -13.5177 -3.25434 
103 2 2.92105 -9.73789 -2.92051 
68 1 4.23907 -12.2025 -2.06692 
57 1 0.501778 -11.1544 -2.56281 
49 2 2.03152 -13.1232 -0.855541 
60 2 2.45108 -10.7216 -0.651341 
508 2 9.67197 -9.89987 -3.64497 
503 2 7.03051 -9.22251 -0.29649 
490 2 8.89849 -11.9871 -1.12667 
66 2 4.84264 -9.84341 -1.47204 
502 1 7.26022 -10.4562 -2.70226 
51 2 6.87865 -12.8989 -2.16221 
489 2 6.51102 -11.7976 -0.160539 
501 2 9.55411 -9.49336 -1.08521 
48 2 0.563207 -14.3746 0.575935 
491 2 1.61586 -12.1212 4.53084 
531 2 2.57591 -10.0441 3.62928 
62 1 2.09845 -11.845 1.81529 
495 2 4.22494 -12.057 3.31706 
497 1 4.46001 -10.0816 1.13953 
61 2 4.50244 -12.8784 0.95398 
527 2 1.82405 -9.2283 1.32791 
498 2 5.15573 -9.85295 3.76807 
499 1 7.76513 -9.99286 4.57038 
496 2 6.43318 -11.4994 2.3414 
504 1 8.90137 -10.4933 1.29985 
505 2 10.4881 -9.70733 3.74448 
520 2 3.34767 -9.57417 7.42938 
492 2 1.88394 -11.8408 7.1766 
518 2 1.02482 -9.86286 8.94269 
494 2 3.63067 -11.0744 5.50982 
514 1 0.920148 -9.84256 6.00737 
493 2 5.89558 -11.8262 4.90767 
535 2 5.57754 -9.72781 6.27322 
59 2 0.0138765 -12.0034 0.0606334 
404 2 0.306341 0.548446 -13.763 
126 2 2.43399 -8.65632 -10.5241 
130 2 3.00737 -6.62502 -9.01169 
132 1 1.29543 -5.81667 -11.1482 
127 2 0.349308 -7.6449 -9.57576 
398 1 4.46033 -6.76003 -11.4314 
131 1 4.76852 -8.65683 -9.13085 
400 2 7.23333 -7.62454 -9.76912 
139 2 5.45911 -5.97094 -9.24498 
402 2 7.98918 -5.22681 -9.15839 
399 2 6.39987 -4.73401 -11.095 
211 2 1.14581 -2.71585 -10.2057 
411 1 3.84784 -3.92205 -10.3253 
405 1 1.39797 -2.84914 -12.9171 
406 2 4.38871 -2.28441 -12.7608 
408 2 3.00742 -1.25024 -10.7919 
409 2 3.61625 -4.7074 -12.8777 
202 2 0.603642 -0.566319 -11.5749 
407 2 2.57225 -0.241519 -13.0176 
208 2 1.0885 -0.623636 -8.85024 
403 2 8.3975 -2.96655 -10.1479 
412 2 6.26423 -2.37702 -11.2678 
414 2 7.78387 -0.520066 -10.452 
413 2 5.36161 -1.42219 -9.19079 
419 2 10.1153 -1.19304 -9.68795 
423 1 2.26565 1.39986 -10.5531 
431 1 4.90195 3.23677 -10.3654 
426 1 3.08113 2.44959 -13.1598 
428 2 2.27505 4.13427 -11.1132 
424 2 0.523709 2.42503 -11.9907 
295 2 0.498064 3.3936 -9.35098 
427 2 1.269 4.37598 -13.4897 
410 1 5.05466 0.295018 -11.5425 
417 2 7.39125 1.93961 -11.042 
421 2 5.83511 2.44217 -13.0484 
847 2 7.71875 3.59994 -9.37718 
420 2 9.65314 3.46709 -10.6982 
848 1 9.22099 1.4005 -8.88248 
853 2 11.8846 0.56957 -8.62377 
854 2 10.5908 3.77016 -8.5617 
436 1 4.39415 5.09312 -12.6532 
430 2 3.63838 5.80099 -10.1606 
429 2 2.03349 6.50455 -12.2308 
439 2 3.97884 7.79648 -11.3502 
440 2 1.57004 8.59552 -11.0894 
434 1 0.994432 6.36356 -9.60066 
443 2 3.3388 7.8523 -9.12621 
437 1 7.44363 4.45773 -12.0272 
865 1 6.15153 6.21339 -9.93431 
877 1 8.96293 6.00138 -9.13128 
129 2 2.05923 -8.76467 -8.11047 
134 2 3.67245 -7.72138 -6.69679 
120 1 2.46121 -7.07515 -4.22105 
195 2 1.67902 -6.55402 -6.92015 
125 1 4.19508 -4.9299 -7.06285 
213 2 1.91962 -4.53011 -8.54536 
118 2 -0.157406 -6.86812 -4.7745 
137 1 6.50781 -7.38484 -6.93831 
135 2 7.15164 -8.19545 -4.27079 
138 2 5.03863 -6.41614 -4.69502 
72 2 9.2089 -8.79227 -7.35033 
840 2 9.06368 -6.41199 -7.39017 
510 1 9.69172 -7.46598 -4.94854 
842 2 11.2927 -5.76898 -6.77875 
216 2 3.58939 -2.41448 -5.41149 
194 1 1.05704 -4.08864 -5.86468 
212 1 2.95224 -2.10234 -7.99903 
214 1 1.07232 -0.774188 -5.91892 
401 2 6.11342 -3.66577 -8.84946 
215 2 5.49283 -2.42044 -6.87752 
136 1 7.36516 -4.34025 -6.49155 
645 2 7.09509 -1.71291 -5.18777 
416 1 7.94261 -1.53356 -7.9318 
841 2 9.43149 -2.26854 -5.58044 
843 1 10.0658 -3.87375 -8.13708 
567 2 9.6883 -4.68313 -5.20371 
844 1 12.0598 -2.82875 -5.96904 
851 2 10.5114 -0.659538 -7.12133 
850 2 10.9391 -0.19213 -4.77767 
418 2 3.7344 0.321517 -8.66819 
303 2 4.04121 2.48008 -7.15108 
301 1 1.45708 1.63139 -7.44459 
304 2 1.55988 3.13057 -5.07977 
219 2 2.62273 1.04439 -4.50813 
435 2 2.70863 4.10094 -8.68047 
217 1 4.74631 0.074151 -6.01489 
415 1 6.29232 1.10862 -8.49657 
849 1 8.46123 0.667351 -5.81871 
646 2 6.20752 2.28904 -6.03852 
864 1 8.41455 3.54469 -6.79925 
432 2 5.82911 3.96122 -7.8287 
857 2 12.7891 -0.245689 -6.35576 
852 1 11.3299 2.12233 -6.53718 
860 2 9.8252 3.06806 -4.57141 
305 1 0.435185 4.73776 -6.94114 
306 2 3.19448 4.58066 -6.13849 
867 1 4.83467 6.37346 -7.32606 
308 1 1.98735 7.35485 -6.66837 
883 2 3.91979 8.59029 -5.44659 
307 2 1.47165 5.68265 -4.56487 
869 2 6.9806 8.08677 -8.178 
868 2 7.51225 6.01875 -6.97905 
863 2 6.18684 5.02358 -5.21226 
866 1 6.51362 8.21893 -5.51019 
871 1 8.75245 5.57645 -4.46699 
878 1 9.3996 7.92449 -6.43842 
870 2 10.5838 5.17425 -6.46208 
856 2 12.2908 4.05526 -4.73523 
872 2 11.202 6.85117 -4.45448 
102 2 0.691954 -8.32552 -2.56876 
124 2 4.06825 -5.68633 -2.48247 
122 1 2.90958 -7.89517 -0.89549 
105 2 0.484576 -6.61469 -0.724769 
121 1 1.28239 -4.94237 -2.575 
548 2 4.20861 -5.39538 -0.159868 
566 2 7.37314 -5.85572 -4.10698 
565 2 8.47082 -7.94472 -2.32887 
119 1 5.76528 -7.62435 -2.11911 
553 1 6.71154 -4.68028 -1.40237 
570 1 12.3313 -5.65754 -4.46947 
509 1 11.3457 -7.75817 -2.19332 
568 1 9.6094 -5.44283 -2.34526 
572 2 11.4013 -6.28142 0.054179 
575 2 12.5722 -4.95221 -1.85213 
201 2 3.18818 -4.53039 -4.42573 
198 2 1.93748 -2.40439 -3.75617 
626 1 3.7895 -3.00158 -1.51815 
199 2 0.868755 -2.63624 -1.0917 
433 2 5.66974 8.95965 -9.9641 
218 2 3.92397 -0.943505 -3.43004 
200 1 1.49411 -0.24908 -2.37215 
140 1 5.4869 -3.71319 -3.96636 
569 2 8.17719 -3.45627 -3.59536 
284 2 -0.0132863 1.30096 -3.90617 
571 1 8.71517 -2.22802 -0.847535 
644 2 6.34778 -1.83584 -2.16637 
648 2 8.70119 -1.17341 -3.32386 
629 1 5.18877 -0.239888 -0.246304 
573 1 11.016 -2.86587 -3.35184 
576 2 10.7271 -3.85615 -0.586662 
578 1 13.1307 -2.33374 -0.970073 
846 2 13.0253 -1.01437 -3.64606 
657 1 10.756 -0.169355 -1.5974 
845 2 13.5453 -3.4205 -3.58639 
735 1 4.49029 3.05864 -4.18609 
786 2 0.211423 6.71889 -2.55848 
652 2 4.04846 1.21599 -2.3516 
709 2 2.02561 2.41067 -2.61725 
733 1 3.9791 4.31452 -1.47076 
631 2 2.71508 1.06976 -0.369329 
651 2 7.48134 2.91757 -4.0626 
649 1 6.36641 0.535505 -3.48874 
653 2 7.9067 0.371163 -1.11831 
650 2 5.9129 2.42411 -1.20722 
658 1 8.68816 2.92273 -1.29152 
736 2 6.36636 4.56177 -2.53465 
855 1 13.2147 1.48571 -4.22438 
647 2 9.16642 1.1582 -3.22685 
859 2 11.1799 2.22946 -2.58826 
858 1 13.6568 3.81878 -2.23207 
861 1 13.6211 0.760681 -1.13734 
806 1 1.92782 8.66396 -3.59868 
716 2 1.33883 4.63656 -2.44004 
734 1 4.1095 6.31061 -4.08859 
811 2 3.07464 7.19697 -1.33674 
791 2 0.719959 8.67619 -0.979966 
874 2 8.76395 8.20892 -3.83981 
737 1 7.50018 8.49901 -1.1869 
741 2 5.34487 6.64441 -1.32979 
744 2 8.2158 5.87797 -1.70073 
738 2 6.73052 6.99971 -3.3021 
875 1 10.4686 7.56309 -1.67615 
876 2 12.566 5.54884 -0.00400818 
873 2 12.9025 6.38037 -2.65258 
742 1 10.7637 4.7545 -2.40043 
814 2 4.72987 8.61466 -0.031656 
715 2 1.7064 3.19502 -0.154778 
605 2 0.300109 -4.78807 4.48814 
530 1 1.02101 -7.40773 3.77311 
528 2 1.81415 -4.79713 2.80741 
532 2 3.49554 -8.08557 2.70809 
529 2 1.82666 -6.81646 1.23924 
552 2 3.94754 -5.96417 2.16778 
450 2 0.498245 -8.37667 11.0103 
539 1 5.84721 -7.31969 4.3784 
558 2 7.69058 -6.33281 2.52542 
547 2 6.96182 -8.7084 2.15527 
550 2 5.65365 -7.20679 0.719898 
519 2 5.28846 -8.52842 8.87586 
560 1 11.604 -7.13736 4.27321 
536 2 9.27584 -7.96331 2.9323 
559 1 10.3652 -5.44805 2.21336 
507 2 13.019 -6.32338 1.98555 
506 1 11.231 -8.54831 1.26115 
607 1 0.681025 -0.175443 3.64076 
628 1 3.20098 -0.344839 2.35861 
606 2 2.4659 -2.65458 3.96141 
604 1 0.610898 -2.52074 1.76089 
630 1 3.86023 -3.15345 1.56561 
541 2 5.24513 -4.45202 3.66397 
636 1 7.74155 -0.923564 1.6576 
614 1 5.38554 -1.63318 3.77921 
556 1 7.92694 -3.74658 3.40742 
549 2 6.10342 -4.90063 1.4617 
557 2 8.35194 -4.26124 0.828492 
581 1 12.578 -0.718666 3.80593 
580 2 10.412 -2.44985 4.27602 
563 1 12.8436 -3.97058 3.46182 
574 1 10.4729 -2.25653 1.60067 
577 2 12.6211 -4.28704 0.865479 
579 2 13.4767 -2.0909 1.59326 
633 2 10.0097 -0.0812528 3.38437 
711 2 1.46209 2.07175 1.9528 
714 2 1.98354 4.23493 1.95837 
718 1 4.29301 2.68769 1.19365 
696 1 3.2514 2.07536 4.08353 
710 1 0.150715 0.372964 0.421427 
721 1 6.56079 3.42048 3.18693 
634 2 5.64737 0.787408 2.3231 
637 2 8.04 1.1651 3.07019 
635 2 7.27253 1.88494 0.730142 
654 2 9.00581 3.61089 1.4271 
723 1 9.56568 3.34142 3.9765 
661 2 11.4933 1.71501 2.78515 
656 2 9.67234 1.07127 0.954966 
660 2 13.098 3.48775 2.76441 
655 2 11.7791 -0.176748 1.10414 
659 1 11.5576 2.93276 0.148694 
663 2 13.3378 1.7764 4.66713 
664 1 14.0325 1.1354 1.86936 
862 2 14.3151 3.50019 0.34873 
720 2 3.82991 4.49308 3.4129 
712 1 1.03446 5.85715 0.0496874 
719 1 4.14641 5.92361 1.17646 
793 2 2.44557 8.16412 0.817238 
797 1 1.84577 6.80769 3.1612 
795 1 4.55252 8.49697 2.89445 
705 2 5.58842 6.3814 9.94333 
722 2 5.80724 6.05441 3.37014 
740 1 6.86377 4.85616 0.46246 
739 2 6.53429 7.34324 1.29483 
750 2 8.91061 7.32826 0.859611 
746 2 8.5268 5.65749 2.66643 
730 1 7.55564 8.06442 3.94388 
665 1 11.4478 5.36382 2.43574 
749 2 11.476 7.7463 0.834082 
747 2 10.064 8.48853 2.75116 
732 2 10.1489 6.54421 4.38112 
533 2 3.38268 -8.40989 5.12524 
534 1 3.13924 -5.55792 5.11517 
743 2 9.81037 5.44333 0.0449538 
516 2 1.97121 -7.37742 6.76621 
596 2 1.16698 -5.71863 8.32835 
522 1 3.60776 -4.85782 8.10379 
554 2 8.50004 -6.34991 4.78417 
540 1 6.38538 -4.9921 6.08492 
537 1 7.33868 -7.81764 6.98179 
538 2 4.50485 -7.23798 6.89408 
523 2 5.97535 -6.15186 8.54459 
542 2 8.12706 -5.06008 8.37959 
562 2 10.4995 -4.68151 4.71015 
500 2 9.57613 -8.36194 5.57148 
543 1 10.2267 -6.15956 7.05416 
594 1 1.2468 -3.25706 6.52916 
610 1 2.79078 -0.626386 5.69272 
592 2 1.44275 -0.831797 8.37751 
597 2 3.36426 -2.08575 7.85221 
609 2 4.33347 -3.18235 6.01378 
586 2 0.0203122 -0.791559 6.32038 
639 2 8.21805 -1.1521 4.48508 
611 2 6.75445 -2.41499 5.79407 
615 1 6.24615 -3.0328 8.40063 
612 2 5.35134 -0.889366 6.95611 
618 1 7.99074 -0.444132 7.4612 
545 2 10.5561 -4.14872 8.67596 
561 2 10.3044 -0.684488 5.81597 
564 1 12.1198 -3.02388 6.29036 
546 1 9.10288 -3.1451 6.72659 
621 2 10.495 -1.36353 8.24477 
692 2 0.0670609 2.30942 4.31334 
693 1 1.06159 1.93288 6.78952 
698 2 1.66792 4.41988 4.59384 
695 2 2.70678 4.09896 6.67884 
697 2 3.84789 1.94935 6.84237 
619 2 5.98287 1.67354 8.00718 
632 1 5.94632 1.1181 5.09371 
703 2 5.35848 3.94742 8.77006 
699 1 5.41969 4.13079 5.8451 
726 1 8.28123 3.10538 6.93616 
640 2 8.65902 1.08848 5.33157 
643 2 12.0077 3.88418 4.80022 
641 1 12.5888 0.208196 6.99851 
662 2 11.038 1.51469 5.22858 
638 2 10.1131 1.04587 7.66264 
642 2 11.4078 3.03869 7.10801 
779 1 1.37749 6.68463 6.17313 
780 2 2.57762 8.78091 4.90111 
837 2 2.86551 6.25314 10.6652 
717 2 4.00779 6.65677 5.07385 
783 2 2.72194 8.89501 7.2168 
704 1 3.90627 6.28231 7.92383 
724 2 7.01363 5.36793 7.76658 
727 2 7.93608 5.31592 4.99289 
725 2 6.24408 6.79838 5.96201 
685 2 0.994018 5.53042 12.1266 
751 2 6.37906 7.98347 8.11187 
729 1 8.77979 7.14406 6.76682 
706 2 9.5657 5.25373 8.57238 
728 2 10.3663 4.87717 6.15319 
702 2 8.06792 6.95112 9.7011 
521 1 2.80935 -7.76919 9.41558 
517 2 3.0171 -5.04754 10.8018 
452 2 0.765704 -5.97841 10.7105 
465 2 1.29648 -4.49094 12.7246 
451 1 2.43876 -7.01239 12.5829 
598 2 4.02262 -4.74315 12.9475 
544 2 7.88889 -7.2646 9.52247 
524 2 5.21127 -4.50385 10.3142 
526 2 7.46661 -5.09381 10.6937 
525 1 5.32824 -6.92613 11.2884 
591 1 1.27583 -3.24019 9.86864 
466 2 3.01651 -2.68025 12.4633 
464 1 0.155457 -2.03053 13.0294 
593 2 1.93219 -0.593913 10.9902 
600 2 3.87546 -2.4739 10.1413 
599 2 4.3151 -0.700917 11.6844 
601 1 6.07924 -2.82403 12.0757 
616 1 6.7263 -0.542943 10.2597 
620 1 8.83912 -2.54569 9.90616 
622 2 9.57113 0.139102 10.0249 
480 2 0.277026 0.738024 12.1673 
613 1 3.95 0.319848 9.10626 
700 2 3.22951 3.11439 8.88135 
678 1 1.06648 1.69742 9.751 
681 2 3.30099 1.70065 11.4906 
682 2 2.07056 3.70517 10.9743 
617 2 7.92326 1.6439 9.20272 
679 1 5.77469 0.986485 12.9344 
701 2 5.70546 2.15178 10.3644 
684 1 4.55962 4.07829 11.6834 
707 1 7.67598 4.23056 10.3479 
623 2 8.10795 1.48452 11.6063 
624 2 10.0672 2.80231 9.36384 
768 1 0.987682 8.28832 11.4664 
675 1 0.9652 4.8446 8.82864 
782 2 1.45703 7.51275 8.88719 
785 1 3.76289 8.88377 9.71296 
481 1 1.07543 2.89801 13.5461 
627 2 2.38086 -1.33526 0.128458 
555 2 6.32819 -2.71384 0.448997 
625 2 1.69126 -4.5403 0.226627 
551 1 8.54027 -7.0792 0.159069 
602 2 4.86861 -1.45982 13.8949 
482 2 -0.00740532 0.220052 14.4954 
680 1 2.65171 -0.0495469 13.6706 
683 2 3.73309 2.53615 13.9198 
441 2 3.54136 9.89973 -10.371 
836 1 0.799257 13.3657 -2.72545 
444 1 4.61186 9.83566 -7.80619 
879 2 2.58966 11.7591 -7.50077 
442 1 1.32696 9.73577 -8.54595 
804 2 2.22739 10.2794 -5.86775 
880 1 4.64804 11.3812 -5.20198 
882 2 1.78511 12.7735 -5.39083 
881 2 6.87593 10.6438 -6.49239 
810 2 0.455197 11.0803 -4.44181 
808 2 2.95359 9.73393 -1.1505 
807 2 2.81551 11.2763 -3.29939 
805 2 0.568159 10.8038 -2.02237 
818 1 3.21137 12.4125 -0.638649 
819 2 5.21881 12.152 -2.54777 
884 1 7.29757 10.6133 -3.49646 
366 2 0.112598 11.6172 -6.92631 
817 1 7.83411 11.7604 -0.817201 
815 2 5.49032 10.6635 -0.672613 
812 2 9.4755 10.0256 -2.24046 
809 1 4.90268 9.20384 -2.92305 
796 2 3.75673 10.4158 1.2655 
790 1 0.888422 10.7058 0.658487 
799 2 2.64516 12.3336 2.00549 
794 2 1.9041 9.59547 2.88612 
833 1 0.767804 11.8469 3.82692 
798 1 3.88753 11.4572 3.99428 
816 1 7.04786 9.94273 1.54599 
813 2 5.30131 12.1055 1.66629 
745 2 8.82443 10.5347 3.65618 
803 2 6.30593 10.6357 4.05343 
748 2 9.57736 9.51205 0.384335 
834 2 0.869515 13.4752 0.537017 
777 2 1.69493 10.6978 5.93409 
829 2 3.57816 11.2619 7.45274 
776 2 0.1714 9.05766 4.51939 
781 2 5.66866 10.3394 8.24486 
801 2 5.64876 11.824 5.99426 
802 1 7.7371 9.93964 6.35998 
784 1 1.22911 10.5511 8.81354 
800 1 4.93925 9.07256 5.92401 
731 2 10.1554 9.05162 5.07482 
