ITEM: TIMESTEP
10000
ITEM: NUMBER OF ATOMS
884
ITEM: BOX BOUNDS pp pp pp
-2.7057867000000002e+01 2.7057867000000002e+01
-2.7057867000000002e+01 2.7057867000000002e+01
-2.7057867000000002e+01 2.7057867000000002e+01
ITEM: ATOMS id type x y z 
78 1 -4.78662 -9.99549 -9.20942 
83 1 -2.05588 -9.52404 -9.29376 
63 1 -7.45633 -10.065 -5.03851 
2 2 -5.15138 -10.1672 -6.52893 
3 2 -3.43133 -10.2685 -4.71883 
4 2 -2.26191 -12.5655 -4.30416 
5 1 -2.64633 -11.4098 -7.04609 
24 1 -0.564625 -11.3016 -0.0818041 
87 2 -0.183221 -9.80492 -7.23633 
8 1 -2.33604 -13.856 -1.58571 
11 2 -9.70428 -10.6504 -0.688416 
12 2 -9.45108 -9.63013 -3.08196 
1 1 -5.12291 -12.2251 -4.4368 
14 2 -7.85053 -9.19176 -0.438601 
15 2 -6.72803 -13.0888 -0.020691 
16 1 -7.38774 -11.2725 -2.05413 
17 2 -5.35961 -9.85512 -2.99699 
18 2 -4.99815 -12.658 -1.66772 
7 1 -0.591085 -10.0062 -4.36656 
21 2 -0.201201 -12.315 -2.88521 
22 1 -2.85225 -11.0578 -2.23737 
20 2 -2.77573 -9.29814 -0.0839589 
6 2 -0.451075 -11.8446 -8.77634 
10 2 -4.47815 -13.9051 0.601902 
9 1 -1.62167 -13.8794 1.49853 
45 1 -4.05909 -10.5865 9.03225 
25 2 -6.09234 -12.9351 2.29102 
29 2 -8.60801 -9.95681 3.57153 
31 1 -6.00651 -10.5485 3.57909 
28 2 -7.83702 -11.1659 1.24167 
19 1 -5.3448 -10.9572 0.308473 
26 2 -2.16736 -13.2498 4.26547 
37 2 -2.43614 -10.4519 1.95405 
38 2 -3.82084 -12.2776 2.47163 
39 1 -3.16493 -10.5547 4.63813 
471 1 -0.413653 -11.2361 3.52571 
23 2 -3.07122 -12.0577 0.174754 
30 2 -7.48892 -9.69013 5.73131 
33 2 -5.15023 -10.9122 6.62214 
467 2 -0.24936 -12.7073 5.86968 
34 1 -2.65743 -12.3638 6.90902 
27 2 -4.71396 -12.8246 4.59631 
47 2 -1.47516 -10.8023 8.95991 
469 2 -0.814398 -10.205 6.36744 
67 2 -0.753564 1.21594 -14.1189 
77 2 -6.20107 -7.84415 -10.0122 
81 2 -7.9295 -6.03329 -9.48822 
98 1 -4.89074 -5.43324 -9.54714 
56 2 -6.49228 -5.92268 -11.7177 
52 2 -4.00446 -5.23537 -12.1703 
53 1 -3.70133 -7.67112 -11.3116 
54 2 -0.83678 -7.98624 -11.0291 
59 2 -2.15471 -5.59689 -10.5688 
48 2 -1.96372 -6.57953 -12.8485 
93 2 -10.2612 -1.82056 -10.3509 
55 2 -7.78367 -1.93754 -10.4443 
58 2 -5.73363 -3.29182 -11.4903 
113 2 -4.47444 -0.956637 -12.1353 
99 1 -5.31698 -1.35155 -9.14192 
95 2 -6.7174 -3.5621 -8.95991 
57 1 -3.24048 -2.92773 -10.6023 
60 2 -0.526384 -2.82107 -10.8284 
49 2 -1.81505 -4.17921 -12.6781 
68 1 -1.73032 -1.29738 -13.2175 
103 2 -1.89393 -0.616795 -10.4802 
50 2 -3.84812 -3.11509 -13.2944 
111 1 -9.9804 2.66527 -9.83583 
109 2 -8.76487 0.308775 -10.6263 
64 1 -5.47776 1.71996 -13.1327 
116 2 -6.56191 0.0772759 -11.2642 
112 1 -7.67265 2.8563 -11.7204 
129 2 -5.31918 3.59455 -10.6836 
127 2 -7.65282 4.28352 -9.35263 
117 1 -3.93535 1.24105 -10.6764 
65 2 -3.06173 0.802753 -13.4982 
123 1 -0.88957 1.50478 -11.4538 
134 2 -2.58794 3.42879 -10.1235 
70 1 -2.74112 3.32692 -12.7721 
138 2 -0.248812 3.28695 -9.10721 
69 2 -5.3918 4.54096 -13.0478 
126 2 -6.35198 5.7563 -11.0038 
398 1 -4.90074 7.99033 -9.9544 
131 1 -3.69865 5.73598 -11.2131 
400 2 -1.39398 7.64779 -11.8076 
128 2 -1.71926 5.64932 -13.2959 
137 1 -0.622097 5.27467 -10.9007 
139 2 -2.19213 7.16456 -9.50423 
74 1 -9.95746 -6.77173 -7.57986 
212 1 -3.61137 6.59505 -4.29806 
75 1 -7.57967 -8.8551 -7.93864 
76 2 -4.78022 -7.72052 -7.98745 
79 2 -8.09074 -7.30843 -5.26181 
80 1 -5.32804 -7.85583 -5.23959 
82 1 -6.78287 -5.90246 -7.14284 
89 2 -8.90069 -4.85578 -5.8698 
84 2 -2.67965 -6.87403 -8.67649 
301 1 -4.14866 6.74797 -1.09084 
85 1 -2.45091 -8.34872 -6.40597 
88 2 -3.76378 -5.83989 -6.85624 
100 2 -1.10449 -5.83127 -5.9821 
154 2 -3.02405 -6.18681 -4.62977 
90 2 -11.2343 -4.51762 -6.42835 
91 1 -9.4121 -3.80468 -8.50021 
92 2 -11.3135 -1.88485 -7.91483 
162 2 -9.86425 -2.3348 -6.10017 
159 1 -12.5084 -2.48316 -5.38696 
96 1 -6.98308 -2.75382 -6.30015 
97 2 -4.508 -3.61411 -7.61421 
170 2 -4.99953 -4.60105 -5.29891 
110 1 -8.54972 -0.761052 -8.22383 
181 2 -8.54445 -0.204068 -5.49438 
114 2 -6.29836 -0.198017 -6.82085 
171 1 -3.96838 -1.66829 -5.70803 
101 1 -1.70346 -4.23307 -8.15356 
102 2 -2.79242 -1.50919 -8.20426 
104 2 -2.64489 -3.9073 -5.40536 
105 2 -1.30155 -2.23488 -6.3482 
303 2 -1.34789 7.54792 -1.19088 
157 2 -13.725 0.0270519 -5.05109 
179 2 -13.2166 2.15685 -5.99628 
106 1 -8.84833 2.08425 -7.17166 
107 2 -10.8429 0.285863 -9.06343 
108 2 -11.7242 2.53663 -7.93645 
182 1 -11.1289 0.238159 -6.18106 
184 2 -11.0101 3.25412 -5.63097 
189 2 -8.71703 4.15487 -5.16032 
115 1 -6.73225 1.67902 -9.03377 
195 2 -4.24698 2.98628 -8.2573 
192 1 -6.65304 2.06172 -5.328 
133 2 -7.06124 4.29338 -7.05158 
121 1 -1.42297 0.359567 -5.51368 
118 2 -4.29056 0.763321 -7.53193 
120 1 -1.75934 1.09859 -8.54093 
201 2 -2.79835 2.60326 -6.38193 
196 2 -4.13695 0.931651 -4.75266 
141 1 -9.8427 5.00706 -7.53075 
204 2 -10.6091 5.80112 -4.85962 
205 2 -8.50557 6.74971 -5.77622 
130 2 -5.21975 5.13302 -8.79309 
132 1 -7.21543 6.88368 -8.06805 
213 2 -4.46374 4.87277 -6.40951 
211 2 -6.05068 6.96744 -5.63733 
209 2 -6.50613 4.81465 -4.80386 
411 1 -3.81159 7.57592 -7.13857 
125 1 -2.22398 4.97521 -8.08772 
215 2 -1.11955 6.69268 -6.14808 
216 2 -2.08369 4.75801 -5.20764 
401 2 -1.3245 8.50009 -7.59061 
94 2 -12.4187 -5.35477 -4.51409 
144 1 -10.2264 -6.99469 -4.21949 
142 1 -12.0026 -5.91181 -1.81764 
143 1 -10.0749 -8.02294 -1.09311 
145 2 -9.12419 -5.33647 -1.63738 
146 1 -7.476 -7.81011 -2.71229 
147 1 -5.18509 -8.2421 -0.653095 
148 2 -4.87287 -6.32526 -2.9353 
149 1 -7.32294 -5.00645 -3.6985 
164 1 -5.99607 -4.41147 -0.946872 
150 1 -2.49999 -6.39791 -0.611569 
151 1 -0.328954 -6.75674 -3.26286 
152 1 -3.05028 -8.23135 -2.93686 
217 1 -0.367023 6.9582 -3.86629 
214 1 -2.22454 4.57874 -2.15602 
242 1 -14.3604 -1.42745 -0.630839 
156 2 -13.0875 -3.44213 -2.90848 
158 1 -10.341 -3.97455 -3.73123 
160 2 -12.9069 -1.0289 -2.93947 
161 1 -10.444 -0.816765 -3.32235 
163 1 -11.2584 -3.10208 -0.862772 
250 2 -9.17286 -0.926689 -0.705356 
221 2 -13.8233 -4.06698 -0.679157 
165 2 -8.62434 -3.07838 -1.77674 
166 2 -5.60782 -2.99314 -3.62754 
167 2 -8.06797 -2.11346 -3.83796 
168 1 -6.5987 -1.34424 -1.40966 
169 2 -6.13459 -0.593749 -4.42453 
172 2 -4.21257 -1.02392 -2.81149 
178 1 -0.275604 -3.89602 -4.09185 
174 2 -4.38487 -2.35962 -0.653274 
173 1 -3.29519 -4.00447 -2.72328 
175 2 -0.883109 -4.17965 -1.318 
176 2 -1.72263 -1.66675 -3.88073 
177 1 -1.86788 -1.65884 -1.07988 
264 2 -14.3718 0.840204 -1.80901 
180 2 -13.9948 3.24009 -1.83556 
183 1 -12.2813 1.63846 -3.42781 
185 2 -10.1356 3.8684 -3.32063 
186 2 -9.53935 1.82198 -4.40872 
187 2 -9.72507 1.51015 -1.84785 
267 1 -11.3451 3.23704 -1.01017 
248 1 -11.7364 0.152322 -0.53116 
190 2 -7.96736 0.406973 -3.02863 
191 2 -5.55362 1.2084 -2.69575 
193 1 -7.71966 3.36734 -2.70485 
276 2 -7.09273 1.27659 -0.778476 
275 1 -4.96418 3.21518 -0.986025 
274 2 -4.54983 0.303948 -0.584669 
194 1 -4.18684 3.49155 -4.04425 
197 1 -2.70473 1.20891 -2.1648 
198 2 -1.1998 2.57068 -4.02345 
199 2 -0.371073 0.138096 -2.9415 
188 2 -12.4802 4.49746 -3.42482 
271 2 -9.25339 5.04938 -0.965818 
288 2 -13.0853 5.5202 -1.22949 
206 2 -11.0221 6.04894 -2.33906 
203 1 -10.265 8.32504 -3.93748 
293 1 -9.72769 7.96996 -0.95935 
413 2 -2.00089 8.92345 -5.00513 
296 2 -6.85015 7.81297 -0.850563 
207 1 -8.14086 6.39991 -3.09732 
208 2 -5.81214 7.84101 -3.24371 
210 2 -5.61549 5.31416 -2.7706 
297 2 -6.95838 5.37982 -0.810639 
284 2 -2.14087 3.08934 0.0392609 
86 1 -0.0141298 -6.98748 -8.57821 
73 2 -9.76765 -8.98758 -6.00878 
418 2 -2.93036 8.79741 -2.69808 
153 2 -1.04057 -8.97254 -1.548 
220 2 -12.1209 -7.77539 0.612723 
222 1 -12.9328 -5.45081 1.23482 
223 2 -11.2453 -6.93883 2.90044 
225 2 -10.3724 -5.7152 0.738701 
227 1 -9.53969 -7.64732 5.02484 
228 1 -7.56632 -6.65347 0.310512 
229 1 -6.94498 -7.18817 3.59967 
230 2 -8.98099 -5.80601 2.69216 
231 2 -6.54478 -4.86197 2.31878 
233 2 -4.88267 -6.05486 0.760385 
394 1 -5.07694 3.85566 13.2603 
237 2 -4.52227 -5.70191 3.30113 
238 2 -2.21731 -6.38448 2.32566 
239 2 -2.53965 -4.77322 3.9635 
236 2 -0.345346 -5.40588 1.02138 
235 1 -4.06394 -8.45479 2.36267 
155 1 -0.52768 -8.54986 1.49286 
35 1 -1.40958 -8.29952 4.27576 
224 1 -10.8399 -4.0199 3.13075 
244 2 -12.8858 -2.66574 1.49912 
246 2 -13.4161 -0.123287 1.72519 
247 1 -10.5411 -1.33424 1.86278 
245 2 -12.6919 -1.89664 3.80682 
251 1 -8.65173 -3.71861 0.775707 
252 2 -6.09741 -2.59963 1.32063 
253 2 -7.62687 -0.736294 1.37112 
254 1 -7.91602 -2.65435 3.67025 
255 2 -6.26305 -0.411817 3.25389 
257 2 -4.89235 -2.96324 3.36423 
258 1 -2.93908 -3.80004 1.32718 
259 1 -3.93312 -0.831505 1.796 
260 2 -2.36277 -2.16141 3.77424 
261 2 -1.2938 -1.42265 1.67077 
686 2 -0.663913 -3.69218 2.95223 
265 2 -13.8501 1.89911 0.281802 
266 2 -13.7852 2.23688 2.93038 
268 2 -11.6839 2.13882 1.5449 
270 2 -10.0613 3.9567 1.25087 
272 1 -9.20973 1.33384 0.874426 
273 2 -9.99261 2.6637 3.25991 
249 1 -11.8922 0.764213 3.86765 
339 1 -12.1399 3.89325 4.51037 
256 2 -8.97004 0.114202 3.48743 
277 2 -5.50641 3.64267 2.45692 
278 2 -5.87589 1.21906 1.39043 
279 2 -7.53905 3.53312 0.462375 
281 1 -7.23707 2.14708 3.91927 
263 1 -1.82784 0.656559 3.41675 
283 2 -2.04735 0.722429 0.428252 
42 1 -6.33737 -8.98254 8.13722 
285 2 -3.66066 2.09193 1.36296 
286 1 -2.35768 4.11254 2.87641 
282 2 -4.28329 2.14234 3.82179 
708 2 -0.423368 2.12596 1.78875 
287 2 -0.624078 2.8462 4.32587 
269 1 -13.077 4.40072 1.45761 
342 2 -10.4342 5.28281 2.93509 
292 2 -11.1286 5.88918 0.288683 
290 1 -10.7169 7.87569 2.22481 
355 2 -12.5909 6.34687 3.26312 
280 2 -7.84037 4.53901 3.0225 
294 2 -8.79052 6.0439 1.10602 
298 1 -6.21351 6.26314 1.46141 
299 2 -7.97526 8.43185 1.36318 
300 2 -5.85497 8.58738 3.18341 
365 1 -5.13131 5.74096 4.12651 
360 1 -8.08782 7.12477 3.93128 
302 2 -3.96433 4.81484 0.900273 
304 2 -1.60871 5.64609 0.321112 
305 1 -3.31764 7.37544 2.16114 
306 2 -1.07159 8.15364 1.15262 
307 2 -0.906381 6.24242 2.65921 
308 1 -0.961009 8.75144 4.00686 
226 2 -11.3866 -5.78604 4.94771 
310 2 -10.1249 -6.06602 7.26944 
41 2 -8.97676 -8.45607 7.52199 
36 2 -5.13759 -8.7214 5.45167 
232 1 -5.97007 -4.82535 5.66517 
234 2 -7.08039 -7.27451 6.19553 
312 1 -7.56507 -6.04838 8.2037 
315 1 -8.77545 -4.55421 5.47539 
316 1 -4.89898 -4.76946 9.07288 
318 2 -4.81424 -6.86534 7.23476 
43 1 -2.86278 -8.72228 7.34067 
240 2 -3.62176 -6.94679 5.07775 
241 2 -1.46863 -6.76605 6.2179 
319 1 -2.23529 -6.27301 9.10518 
321 2 -3.24225 -4.96943 6.80894 
311 2 -9.34142 -4.00482 8.38925 
309 1 -11.5384 -3.68612 6.61751 
243 2 -10.4412 -1.5664 4.69996 
324 1 -11.9004 -0.594241 6.65986 
330 2 -8.89068 0.551636 8.67814 
323 2 -10.5495 -1.75448 8.83958 
313 2 -6.99427 -3.32507 7.92166 
327 2 -7.25644 0.201698 5.50527 
328 1 -8.8575 -1.66475 6.78617 
329 1 -6.38886 -0.120771 8.12991 
332 2 -6.28141 -2.17535 5.84704 
671 1 -0.811001 -3.93326 5.98846 
317 2 -1.93499 -3.57511 8.57119 
262 2 -3.77402 -3.12577 5.57536 
333 1 -4.33252 -2.16801 7.81022 
335 1 -1.64207 -1.23867 6.63517 
337 1 -4.33772 -0.331563 5.1264 
343 1 -9.59268 1.58696 5.86679 
338 2 -12.285 2.16639 6.24776 
340 1 -10.496 4.17892 7.44691 
325 2 -11.217 1.41637 8.375 
346 2 -7.5947 2.34713 7.14365 
347 1 -6.88325 4.78351 5.79009 
350 2 -5.49288 2.14878 6.12494 
352 1 -5.13984 3.81093 8.27404 
334 1 -3.56966 0.931804 7.89295 
771 2 -0.707889 1.29293 8.13891 
349 2 -2.00722 1.37128 5.81522 
351 1 -3.21231 3.67331 5.87068 
353 2 -2.40336 3.47462 8.47889 
788 2 -0.468898 3.23755 6.81706 
345 2 -9.37733 4.45635 4.95165 
356 1 -10.7301 6.83608 5.33642 
792 1 -0.0453993 3.66026 9.75068 
361 2 -6.19355 7.71855 5.88312 
341 1 -8.65396 6.84826 7.37249 
358 2 -6.10924 6.5748 8.01948 
371 1 -4.17586 8.69636 7.87611 
13 1 -9.48542 -8.48126 1.71004 
354 1 -1.16517 5.70281 7.43959 
367 2 -2.22877 6.22667 4.77849 
368 2 -3.98011 6.28004 6.59428 
369 2 -3.9044 8.28612 4.82834 
370 2 -2.01825 8.05194 6.41347 
810 2 -0.76901 8.34466 8.55783 
40 2 -6.15246 -6.51901 10.6242 
44 2 -2.68423 -8.73308 10.334 
46 2 -4.48501 -7.55564 9.49166 
484 2 -1.13133 -7.12199 11.3846 
752 1 -1.12969 -4.03548 11.354 
322 1 -3.64668 -5.94249 11.7232 
314 1 -7.7353 -4.30639 10.641 
374 2 -5.49169 -3.86161 12.0125 
373 2 -7.68187 -1.86198 11.9307 
326 2 -5.924 -2.19206 10.21 
331 2 -8.20745 -1.68765 9.55392 
377 2 -6.84948 0.184358 10.863 
378 2 -4.2523 -0.443793 9.97307 
375 2 -3.21554 -3.26428 13.0606 
824 2 -0.595721 -1.52834 12.5853 
320 2 -3.56816 -2.78753 10.5165 
336 1 -1.5094 -1.18591 9.78011 
380 1 -4.94163 -1.17482 12.6082 
381 2 -2.54564 -0.0969214 11.9293 
382 1 -9.54071 2.79804 10.0988 
379 2 -6.20999 1.12957 13.1362 
344 2 -7.93943 4.54222 8.40541 
348 2 -7.0851 2.44244 9.5042 
385 2 -7.34042 2.88254 11.8204 
396 1 -1.45118 2.25936 13.0082 
386 2 -1.96541 1.65188 10.3338 
387 1 -4.79017 1.92351 10.917 
388 1 -2.77094 4.19278 11.143 
384 2 -9.62407 5.36709 9.95041 
383 1 -6.35757 5.20489 10.7714 
362 2 -5.3019 8.12547 10.4279 
390 2 -7.7078 7.31758 9.91024 
835 2 -0.871243 6.14779 10.2692 
397 2 -1.61602 6.77824 12.3356 
389 2 -4.09188 6.23398 11.9998 
372 1 -3.617 6.27282 9.25903 
830 2 -0.427261 4.68449 12.4396 
391 1 -2.49617 8.79259 10.5683 
689 2 -0.100742 -1.272 4.41715 
291 2 -13.145 7.09772 0.768901 
295 2 -5.14737 8.82837 0.735621 
485 1 -0.0377939 -8.45889 9.06853 
32 2 -6.7827 -8.92044 1.54362 
393 1 -2.36943 -0.825237 14.5834 
376 2 -1.01013 -3.47091 14.1352 
395 2 -2.50756 4.96555 13.7826 
392 2 -3.81233 1.2136 13.7136 
402 2 -0.630728 9.18469 -10.0742 
399 2 -2.89371 9.46873 -9.14948 
409 2 -5.85303 9.14457 -7.42858 
406 2 -5.22218 11.0464 -6.2402 
405 1 -7.46451 9.35736 -5.3071 
408 2 -4.57909 9.0564 -4.93046 
403 2 -0.533868 10.777 -8.07254 
412 2 -3.05454 10.2591 -6.78812 
414 2 -0.822426 11.2683 -5.69484 
437 1 -0.667127 14.4882 -1.1987 
407 2 -6.19571 11.3323 -4.07278 
202 2 -7.9538 9.35847 -2.60625 
404 2 -7.5454 11.5954 -2.20786 
423 1 -5.20869 10.047 -1.9901 
426 1 -5.19132 13.023 -2.18143 
424 2 -7.6246 10.1635 -0.27534 
410 1 -3.10933 11.2809 -4.18798 
415 1 -0.336682 9.88485 -3.14058 
417 2 -0.718343 12.8804 -3.58491 
431 1 -2.11939 11.6093 -1.34995 
421 2 -2.87097 13.9453 -2.69173 
432 2 -0.0541574 9.86444 -0.391839 
435 2 -3.02096 9.17589 -0.146801 
289 2 -9.8488 10.1045 0.771203 
357 1 -8.47182 10.0062 3.48633 
422 2 -8.52552 11.964 1.40927 
427 2 -6.70445 12.5875 0.0678492 
425 2 -6.45484 10.6659 1.77011 
429 2 -5.16407 12.9602 1.89476 
438 2 -6.90791 12.2917 3.47618 
804 2 -0.531273 9.91297 6.51888 
428 2 -4.42792 11.2673 0.313621 
430 2 -1.51981 10.5112 1.58404 
359 2 -8.44323 9.09709 5.95112 
434 1 -3.76235 10.3336 2.85349 
443 2 -2.59463 12.7913 2.54777 
444 1 -0.431997 11.7712 4.01368 
442 1 -2.97887 10.7299 5.76431 
436 1 -3.39383 14.0034 0.0531127 
433 2 -0.525286 14.2746 3.3001 
879 2 -0.746366 12.473 7.00187 
364 1 -6.17122 10.4663 5.32158 
439 2 -4.47675 12.6226 4.49211 
440 2 -4.9914 11.3483 7.5708 
441 2 -2.09377 13.5628 5.20597 
366 2 -2.4026 10.679 8.34461 
865 1 -0.258636 12.7205 0.933913 
363 1 -7.00091 9.25813 8.3697 
882 2 -0.100473 10.5702 8.96247 
512 2 0.741647 -9.47017 -9.44994 
492 2 3.85678 -9.68879 -9.79871 
445 2 0.677621 -12.1137 -5.74884 
446 1 2.17539 -11.471 -8.31897 
447 2 3.32341 -12.0854 -5.80988 
513 2 4.239 -9.82033 -4.90083 
515 2 2.01311 -9.96479 -6.01358 
518 2 4.41657 -10.2768 -7.36195 
450 2 5.9527 -11.4966 -5.63613 
453 1 0.970112 -14.043 -0.915847 
454 2 3.5002 -13.396 -1.71034 
448 2 1.93393 -10.9608 -3.98751 
455 2 1.87031 -13.3077 -3.69012 
457 2 1.76057 -11.5136 -1.6882 
585 2 1.22537 -9.2995 -2.43875 
589 2 1.96054 -9.38095 -0.155741 
587 1 3.96939 -9.78086 -1.91228 
449 2 4.3362 -11.9751 -3.5902 
451 1 8.61481 -11.0794 -4.37524 
465 2 8.35128 -10.3379 -1.75476 
452 2 6.34217 -10.4258 -3.2379 
461 1 6.33314 -12.1508 -1.30622 
598 2 10.0725 -9.21118 -2.96966 
468 2 0.217681 -13.8512 3.87751 
460 2 1.45776 -10.6548 1.78844 
472 1 2.73259 -12.1909 3.7702 
474 2 3.47494 -9.59993 4.86666 
459 1 3.76652 -9.60763 2.07252 
456 2 0.862748 -13.0408 1.65529 
463 2 5.904 -12.1675 1.43872 
477 1 5.80993 -10.9241 3.91778 
464 1 8.08039 -10.2017 1.19982 
482 2 9.13297 -10.6978 3.7711 
473 2 1.32878 -10.8557 5.49057 
476 2 3.5909 -11.6297 6.46432 
475 2 3.22301 -9.46417 7.59056 
483 1 1.08549 -11.0929 8.10127 
478 2 7.71409 -10.0712 5.79674 
479 2 5.35898 -9.73695 6.42614 
486 2 2.48168 -9.23411 10.0877 
458 1 3.3087 -12.1002 0.518256 
462 2 5.59271 -10.2119 0.200526 
51 2 0.727189 -0.787186 -14.1822 
490 2 3.63522 0.0225675 -14.4095 
71 1 0.389154 3.79361 -13.5693 
491 2 1.86924 -7.73379 -10.8294 
494 2 4.14423 -7.32387 -10.0487 
495 2 3.09287 -5.49671 -11.8826 
531 2 2.40077 -5.74323 -9.1691 
62 1 0.458486 -5.42235 -11.5176 
535 2 6.38729 -6.02384 -9.38016 
493 2 5.67578 -5.63839 -11.8741 
496 2 4.41421 -3.32107 -12.2365 
497 1 2.39413 -2.91163 -10.5582 
498 2 4.34899 -4.64261 -9.98187 
66 2 0.543504 -0.77857 -11.5284 
61 2 0.764869 -3.02038 -12.866 
503 2 3.36637 -0.42474 -11.1033 
550 2 3.21809 -1.0601 -8.6372 
489 2 2.68829 -1.67875 -13.0191 
547 2 5.03107 -1.77064 -10.0853 
499 1 6.92661 -3.59451 -10.8007 
536 2 7.1674 -0.84326 -10.3679 
505 2 8.34034 -1.49024 -12.4454 
504 1 5.58176 -1.15156 -12.8274 
500 2 9.59445 -3.04384 -10.5749 
560 1 9.97999 -0.382461 -10.2708 
502 1 1.82547 1.16676 -12.7251 
119 1 1.73403 1.16364 -9.4562 
565 2 3.50068 2.79541 -10.935 
135 2 1.239 3.30404 -11.0393 
508 2 3.27579 3.26649 -13.3888 
566 2 2.06013 4.17721 -8.95727 
501 2 4.71411 1.23114 -12.3916 
551 1 5.11957 1.05463 -9.50959 
506 1 7.58774 1.21706 -11.815 
572 2 7.18554 3.23504 -10.1517 
509 1 5.57779 3.95892 -12.1972 
568 1 4.83292 4.27548 -9.15719 
507 2 9.69089 2.63585 -10.4865 
510 1 2.72248 5.47144 -11.5971 
840 2 0.955959 7.67626 -10.877 
72 2 0.519847 6.60488 -13.0227 
842 2 3.22519 8.24211 -11.1108 
570 1 5.54504 6.95786 -10.7635 
575 2 7.56618 5.47363 -9.53035 
511 2 0.406279 -7.79847 -5.86384 
514 1 2.64777 -8.21631 -7.87086 
533 2 4.35797 -5.88856 -7.69942 
530 1 1.73804 -5.61201 -6.36153 
520 2 5.52768 -8.03395 -8.16499 
519 2 8.27516 -7.55438 -7.97114 
516 2 4.61365 -7.23736 -5.79996 
538 2 6.53199 -6.07708 -6.77379 
537 1 8.7811 -4.88061 -8.62321 
122 1 0.233015 -1.39361 -8.72602 
523 2 9.07481 -6.17819 -6.00424 
544 2 10.8262 -6.62789 -7.55571 
525 1 9.9193 -8.79322 -6.07462 
526 2 11.6827 -6.51185 -5.15073 
527 2 0.792714 -4.19755 -8.58482 
529 2 1.05637 -2.83157 -6.50773 
532 2 3.07711 -3.71924 -8.05696 
552 2 3.49433 -2.33575 -6.39903 
625 2 0.787869 -1.11209 -4.9328 
528 2 2.28156 -3.09879 -4.48192 
548 2 2.17264 -0.227992 -6.76804 
534 1 4.60694 -4.4427 -5.17769 
539 1 5.79054 -3.429 -7.95553 
540 1 7.96932 -3.15971 -6.13144 
541 2 5.76135 -2.01805 -5.31972 
554 2 8.33846 -2.06215 -8.69191 
558 2 6.45252 -0.810592 -7.98908 
543 1 11.0303 -2.79197 -8.17914 
542 2 10.8103 -4.49634 -6.20088 
545 2 12.9259 -2.90555 -6.16739 
546 1 10.677 -1.8561 -5.15598 
562 2 9.6815 -0.525604 -7.35987 
140 1 0.343163 4.01334 -6.43876 
124 2 0.45833 1.39397 -7.10181 
549 2 4.60131 -0.0669287 -6.77713 
553 1 3.2069 2.42488 -7.12772 
626 1 1.41904 1.68612 -4.6609 
644 2 2.82804 4.04355 -4.7755 
556 1 7.34668 0.0995431 -5.51076 
571 1 5.6309 3.99853 -5.48834 
559 1 8.10506 1.37025 -8.5748 
555 2 4.55546 1.47205 -4.84964 
557 2 5.95344 1.92662 -7.10076 
574 1 8.7716 3.18414 -5.9358 
576 2 6.94974 4.1025 -7.71829 
563 1 11.0827 2.05895 -7.89201 
564 1 12.5656 -0.184665 -6.56809 
580 2 10.2008 0.90283 -5.42855 
581 1 12.504 2.55635 -5.18265 
577 2 9.38404 4.19375 -8.60827 
579 2 11.0304 4.66063 -6.49241 
567 2 3.20796 6.73967 -9.19913 
136 1 0.676654 6.60096 -8.29264 
841 2 2.99383 7.77427 -6.99762 
569 2 3.2491 5.2459 -7.10008 
645 2 1.60286 6.24991 -5.46281 
648 2 4.10278 6.24623 -5.02153 
845 2 7.48162 8.07568 -9.08414 
573 1 5.6864 6.44316 -7.49282 
578 1 8.66175 6.4447 -7.15987 
846 2 7.2953 8.67439 -6.66822 
850 2 5.09899 8.56828 -5.51602 
861 1 9.65239 8.1173 -4.59978 
582 1 2.61212 -7.7927 -4.31264 
584 2 2.55146 -7.32339 -1.64279 
660 2 12.9 5.27179 -1.47732 
603 1 1.64552 -4.7723 -1.09799 
605 2 2.41784 -5.28212 -3.46623 
521 1 6.79438 -8.84524 -6.02088 
522 1 7.14302 -6.00685 -4.23267 
517 2 7.89743 -8.55849 -3.57311 
596 2 5.44835 -8.0471 -3.54065 
594 1 4.62696 -5.721 -2.09943 
591 1 6.67117 -8.29589 -1.11956 
597 2 7.31385 -5.06403 -1.73906 
524 2 9.73335 -7.19501 -3.89029 
601 1 11.7392 -7.00847 -2.27952 
600 2 9.05282 -6.76953 -1.75122 
466 2 9.82651 -8.77433 -0.557219 
630 1 3.53496 -0.702459 -4.09389 
604 1 1.09042 -2.11722 -2.20624 
606 2 4.02338 -2.95811 -2.53641 
628 1 4.02487 -0.283363 -1.00174 
611 2 8.47967 -2.02155 -3.70094 
609 2 6.61309 -3.42784 -3.48763 
610 1 5.91964 -2.9717 -0.605025 
612 2 8.50787 -2.82892 -1.46468 
614 1 6.27505 -0.816139 -2.78516 
632 1 8.15656 -0.373084 -0.382713 
621 2 13.0974 -1.39016 -3.99438 
620 1 12.5531 -4.268 -3.89735 
615 1 9.67425 -4.52981 -3.45321 
616 1 11.5019 -4.26003 -0.881195 
618 1 10.8767 -1.66196 -2.26833 
622 2 13.5885 -2.52081 -1.74472 
659 1 9.1544 7.039 -1.93228 
627 2 1.82375 0.458097 -2.26867 
629 1 3.87458 2.60616 -2.44694 
631 2 2.55453 1.81771 -0.194809 
652 2 2.3733 4.12761 -0.374443 
661 2 10.5008 4.67765 -1.99643 
634 2 6.28538 1.26505 -0.860023 
635 2 6.55288 3.72591 -0.872962 
636 1 6.96523 2.18593 -3.38098 
637 2 9.13101 2.40479 -1.4008 
200 1 0.200749 2.46585 -1.62153 
639 2 9.22359 0.296958 -3.20749 
561 2 11.6699 0.622283 -3.50716 
633 2 10.1641 2.61347 -3.64759 
662 2 12.0954 2.76903 -2.12678 
640 2 10.841 0.812596 -1.25049 
642 2 14.0297 3.18912 -0.662181 
641 1 13.9227 0.466094 -2.19104 
663 2 14.0104 3.69787 -3.08524 
218 2 0.538715 4.30326 -3.60585 
849 1 2.51265 8.50667 -3.84068 
651 2 3.55216 7.42912 -0.904639 
646 2 1.0302 7.89198 -1.60077 
649 1 2.65652 5.69004 -2.6469 
650 2 4.54883 5.03673 -0.536134 
219 2 0.137292 5.63234 -1.55107 
657 1 7.0458 6.69734 -4.54894 
859 2 7.12968 8.7887 -2.59252 
653 2 5.32803 4.8997 -2.87524 
658 1 6.46505 6.66982 -1.06361 
647 2 4.9114 7.60645 -2.9828 
656 2 8.04754 4.62103 -2.80358 
654 2 8.75606 4.76139 -0.216697 
664 1 12.0333 5.4565 -4.19278 
655 2 9.5141 5.35928 -4.50879 
862 2 11.7402 7.42665 -2.14222 
617 2 12.3795 -1.29919 -0.0334062 
876 2 10.6789 8.90618 -0.496401 
583 2 0.293195 -7.2183 -0.654312 
667 1 0.323067 -6.04302 3.73612 
668 2 2.83546 -7.09829 4.27259 
670 2 3.24746 -4.70431 3.46119 
588 1 2.12661 -6.83759 1.42166 
586 2 3.84097 -5.02548 0.624224 
470 2 1.42941 -9.01962 3.51295 
672 2 5.28228 -8.12891 4.16417 
676 2 4.53201 -6.60222 2.45667 
678 1 7.24854 -6.13625 3.03171 
480 2 7.85386 -8.64818 3.53426 
595 2 6.12892 -8.35868 1.70943 
593 2 8.31241 -7.42747 0.999957 
592 2 6.17304 -5.9349 0.430819 
613 1 8.44463 -4.58424 0.550022 
680 1 10.5428 -8.46739 2.36322 
681 2 10.0015 -5.85712 2.59705 
683 2 11.6731 -6.71284 4.30803 
679 1 12.6572 -5.5604 1.90204 
599 2 10.5044 -6.5425 0.216162 
602 2 12.3917 -7.89398 0.270058 
687 2 1.6091 -4.23062 1.77012 
690 2 1.68058 -3.13791 3.98768 
691 2 1.17065 -1.44107 2.34816 
692 2 3.4926 -1.81388 3.00665 
607 1 2.82783 -2.35883 0.320226 
638 2 13.0254 1.08034 0.274554 
799 2 5.8161 5.33177 10.7372 
693 1 5.46143 -3.67266 2.29417 
695 2 6.95297 -2.03207 4.00749 
696 1 5.53702 -0.35855 1.48398 
697 2 7.64102 -2.02342 1.57866 
698 2 5.30233 -0.392487 4.22578 
700 2 8.60496 -3.65825 3.30857 
703 2 10.0342 -1.85979 3.30844 
707 1 12.7249 -2.00964 2.98598 
724 2 11.0498 0.0611257 4.11584 
701 2 10.7859 -3.67098 1.84373 
619 2 9.94706 -2.12574 0.3984 
706 2 13.2024 0.71746 2.65355 
748 2 10.5528 9.07088 4.22564 
623 2 13.5596 -3.14209 0.743548 
624 2 14.6255 -0.758097 0.785008 
711 2 2.84026 0.301714 1.66813 
713 2 1.09775 0.873222 3.4138 
714 2 3.7009 1.51773 3.47653 
715 2 1.96953 2.70286 1.90624 
699 1 8.34599 0.329415 3.23819 
718 1 4.7555 2.72351 1.08302 
719 1 4.99684 4.25428 4.05112 
720 2 6.08467 1.84375 3.27251 
721 1 8.07934 2.4894 1.20598 
722 2 7.82825 3.24702 3.9293 
727 2 10.3028 2.68431 2.88248 
728 2 13.5421 2.86818 1.83655 
729 1 12.5842 2.51371 4.59151 
726 1 10.7802 0.281615 1.51384 
746 2 9.58167 4.9601 2.16206 
723 1 11.2283 3.24777 0.429689 
863 2 3.19132 8.50303 1.34003 
716 2 0.957241 4.55202 2.85206 
733 1 3.38851 5.33078 1.81065 
734 1 1.7125 7.25851 3.60059 
735 1 1.17514 6.79655 0.825381 
813 2 7.1738 6.58068 9.31824 
736 2 5.17718 7.42097 1.0154 
740 1 6.65471 5.22828 1.7452 
741 2 4.5073 7.17148 3.60203 
744 2 6.94874 7.79409 2.57715 
709 2 0.111376 4.09056 0.693182 
743 2 8.56413 7.05675 0.805923 
739 2 7.18326 5.83367 4.35202 
750 2 8.85395 7.4463 3.99433 
732 2 12.0931 4.54359 2.92302 
747 2 11.2718 6.82124 3.4996 
749 2 10.2086 8.45712 1.97553 
643 2 13.4617 5.00445 1.02114 
665 1 11.26 6.41964 0.354912 
834 2 3.70283 5.21128 12.0675 
666 1 1.10105 -8.1516 6.19139 
669 1 2.24692 -5.13798 6.08776 
753 2 0.092201 -6.05494 7.60397 
756 1 2.68873 -6.96543 8.77958 
673 2 4.13287 -7.63429 6.41829 
677 2 5.10642 -5.68809 4.76081 
488 1 5.58239 -8.12558 8.89217 
674 1 7.12122 -7.44508 6.20876 
759 2 7.06231 -5.55494 8.20647 
765 2 4.90135 -5.45838 7.177 
767 2 8.47745 -7.5242 8.76076 
682 2 9.10533 -6.00139 4.80355 
685 2 9.39203 -5.92999 7.07384 
481 1 9.86043 -8.43455 5.42303 
758 2 3.3683 -4.22121 8.52932 
755 1 0.673225 -3.49783 8.58856 
688 1 2.69098 -0.20547 5.36849 
769 2 1.49599 -2.43123 6.37625 
772 1 1.23391 -0.413328 8.31247 
775 2 3.58099 -1.88487 7.61515 
675 1 7.40168 -4.06976 5.79312 
694 1 4.36425 -2.98917 5.33229 
766 2 5.56082 -3.2845 7.95683 
779 1 6.38619 -1.07376 6.72713 
782 2 8.04424 -2.77959 8.17951 
783 2 8.12204 -0.512861 8.80007 
684 1 11.0282 -4.04899 4.56209 
705 2 11.8747 -1.86982 5.91301 
704 1 9.35402 -1.20411 5.97949 
837 2 10.054 -3.57406 7.00903 
785 1 10.7161 -1.37546 8.5359 
702 2 13.4325 -0.0637116 5.04162 
776 2 3.96178 0.34311 8.16455 
773 2 0.196941 0.838905 5.81397 
712 1 2.03294 3.20187 4.63699 
789 1 2.06601 2.25348 7.5263 
793 2 3.85503 4.23284 6.77596 
780 2 6.61736 1.3312 8.02287 
717 2 7.53374 1.27387 5.64024 
794 2 4.93918 2.7365 8.67342 
795 1 7.21543 3.79835 6.5066 
797 1 4.85401 1.85959 5.98189 
725 2 9.74219 1.99441 5.08733 
751 2 11.4754 0.636016 6.41482 
800 1 9.24737 1.6162 7.67374 
802 1 11.2475 3.57921 7.09709 
791 2 1.51012 4.91926 7.0734 
806 1 0.915943 7.63974 6.45073 
808 2 3.2287 6.56534 7.62002 
809 1 3.67135 8.89193 6.22737 
811 2 2.96962 5.94209 5.35912 
807 2 1.91295 8.96795 8.71208 
796 2 5.56034 5.26417 8.2974 
737 1 6.29074 8.88839 4.8738 
814 2 5.32093 6.26703 6.00477 
815 2 5.33198 7.68035 7.88515 
816 1 7.80435 6.97407 6.73733 
730 1 9.74772 4.75241 4.89514 
803 2 9.02009 4.96162 8.0461 
731 2 12.4197 5.25069 5.34043 
745 2 10.6505 7.15028 5.95059 
487 1 1.75683 -7.43917 11.8974 
754 2 0.315717 -5.9208 9.97083 
757 1 2.35012 -4.36013 11.0812 
820 2 0.101737 -5.57835 12.9861 
763 2 4.22966 -7.59642 11.0033 
761 2 4.92902 -5.59416 9.78015 
764 1 7.083 -6.28636 11.0861 
762 2 4.49074 -5.3833 12.2708 
768 1 9.46319 -4.62413 9.6995 
821 2 1.14223 -3.30632 13.1852 
770 2 0.819773 -1.93043 10.7406 
825 2 2.07638 -0.965939 12.6315 
826 1 3.47058 -1.18843 10.3906 
822 2 3.81154 -2.66593 12.8456 
760 2 6.95823 -3.88005 10.002 
778 2 6.18599 -1.52335 9.5692 
774 2 4.83075 -3.22218 10.7081 
827 1 6.41902 -3.52768 12.7633 
828 1 5.62044 -0.59571 12.4988 
784 1 8.46527 -1.89206 11.113 
823 1 0.476996 0.759313 10.9713 
839 2 3.30213 0.977808 12.317 
787 2 2.88778 1.58755 10.0618 
790 1 2.85099 4.37369 9.58415 
832 2 1.50204 5.98817 11.4103 
831 1 1.64153 3.27385 12.2389 
829 2 7.62974 0.935036 10.9653 
777 2 5.34172 0.781958 10.1041 
798 1 7.53427 3.39868 9.7574 
833 1 4.96672 2.98194 11.6522 
801 2 10.3094 3.35285 9.56262 
781 2 9.97898 0.801103 10.1698 
836 1 0.643314 8.37322 10.9411 
805 2 1.0994 6.5253 8.95827 
818 1 3.76007 7.22833 10.1473 
608 2 0.0964503 -2.96496 0.478939 
786 2 0.126579 5.41456 4.90455 
590 2 4.30949 -7.72555 0.157636 
710 1 0.532098 -0.0933269 0.149155 
838 2 0.332517 0.453073 13.6293 
843 1 2.00299 9.53121 -8.91487 
851 2 3.36609 10.09 -6.08112 
419 2 1.58898 11.572 -6.9631 
416 1 0.731343 9.08168 -5.99225 
853 2 4.13153 12.2506 -5.23508 
844 1 4.84251 9.27491 -8.5315 
857 2 5.75372 10.8132 -6.40401 
855 1 7.51155 10.3343 -4.66581 
864 1 2.63901 10.2158 -0.957981 
848 1 1.60424 11.3998 -4.17255 
854 2 3.64864 12.5776 -2.53462 
847 2 0.646231 12.086 -1.59667 
852 1 4.81066 10.3256 -3.34113 
856 2 6.99978 11.2662 -1.84812 
870 2 4.93077 11.9299 -0.497994 
860 2 5.17154 9.31777 -0.65874 
858 1 9.43366 10.2748 -2.43824 
420 2 1.55372 13.9301 -2.8979 
877 1 2.37144 13.5497 -0.21721 
867 1 1.03779 10.0371 2.03823 
868 2 3.23398 11.4518 1.36182 
738 2 3.31512 9.37473 3.60702 
869 2 1.82192 12.9695 2.57733 
884 1 5.39031 11.485 6.73363 
874 2 6.10944 11.6057 4.01568 
878 1 5.03927 13.3132 1.84739 
871 1 5.50511 10.1054 1.97059 
872 2 7.19054 11.9161 0.91705 
875 1 8.38528 10.2689 3.23304 
873 2 9.71268 10.818 0.752438 
866 1 3.33793 11.8732 4.3891 
819 2 4.26223 9.70608 8.64358 
881 2 1.11771 13.233 5.31547 
880 1 2.05552 11.4176 7.41113 
883 2 1.34311 10.1188 5.00364 
812 2 8.78492 9.44511 5.9061 
817 1 7.03662 9.57615 8.06285 
742 1 7.82679 9.36595 0.025886 
