ITEM: TIMESTEP
30000
ITEM: NUMBER OF ATOMS
884
ITEM: BOX BOUNDS pp pp pp
-2.7057867000000002e+01 2.7057867000000002e+01
-2.7057867000000002e+01 2.7057867000000002e+01
-2.7057867000000002e+01 2.7057867000000002e+01
ITEM: ATOMS id type x y z 
85 1 -1.8927 -9.66103 -3.88332 
4 2 -2.09433 -13.3218 -0.531203 
3 2 -3.74201 -10.8383 -2.37199 
73 2 -8.93225 -10.5333 -5.25286 
77 2 -5.17585 -9.81431 -8.11403 
75 1 -6.32722 -10.6073 -5.9212 
53 1 -2.13603 -10.3974 -9.01976 
78 1 -4.1204 -12.158 -7.22051 
83 1 -1.39393 -11.6058 -6.03958 
76 2 -3.65866 -9.75085 -6.08503 
84 2 -1.38584 -8.88093 -6.78573 
2 2 -4.02527 -11.6987 -4.52925 
12 2 -9.08796 -9.97789 -2.91493 
63 1 -6.53845 -11.1642 -3.0842 
16 1 -8.05764 -11.4536 -0.399591 
17 2 -5.65752 -10.4768 -0.390084 
1 1 -4.86123 -12.9546 -1.15638 
5 1 -1.8594 -12.7674 -3.10457 
7 1 -0.916959 -10.6726 -1.00856 
6 2 0.0273581 -13.7407 -5.00586 
56 2 -4.16863 -9.14596 -10.4614 
453 1 -0.454672 -13.5645 3.79375 
11 2 -10.0318 -10.53 1.19263 
28 2 -8.76475 -9.73668 3.02298 
10 2 -5.87201 -12.6307 3.76259 
19 1 -6.26148 -10.0961 2.3201 
15 2 -8.0209 -12.0053 2.30294 
18 2 -5.76571 -12.4753 1.30352 
25 2 -7.92371 -11.3778 4.69281 
14 2 -8.16285 -8.98316 0.64863 
8 1 -3.39731 -13.536 2.2904 
23 2 -3.99655 -11.0496 3.42244 
24 1 -1.34974 -10.6241 3.23616 
21 2 -0.851908 -12.5061 1.25435 
22 1 -3.31051 -11.1304 0.793333 
38 2 -5.5001 -11.1806 5.57497 
27 2 -7.4056 -10.7166 7.02008 
460 2 -0.235832 -9.29204 5.41676 
26 2 -4.14361 -11.7206 7.60981 
471 1 -2.56274 -9.97915 6.33738 
456 2 -0.517912 -11.7123 5.7304 
9 1 -3.17452 -12.7186 5.42608 
468 2 -1.80848 -11.9671 7.90915 
467 2 -0.661618 -10.7024 10.1042 
34 1 -3.38505 -10.0614 9.77709 
64 1 -2.60393 -2.61443 -13.8199 
69 2 -2.68867 0.0495497 -14.4995 
70 1 -0.173002 -0.989877 -13.7989 
131 1 -0.938461 1.91247 -13.4682 
81 2 -5.98421 -7.93999 -9.51122 
55 2 -5.94689 -5.16611 -10.869 
58 2 -4.07977 -6.71838 -10.8098 
52 2 -2.00816 -8.13024 -11.0374 
50 2 -0.730092 -6.30219 -12.4353 
57 1 -1.74701 -5.61535 -9.87813 
113 2 -2.73763 -4.91074 -12.1931 
107 2 -9.00327 -2.16389 -10.4829 
93 2 -8.46539 -4.43427 -10.8618 
109 2 -6.62073 -2.53683 -11.4467 
115 1 -4.55625 -0.928017 -9.93278 
112 1 -4.96072 -0.873192 -13.2605 
116 2 -4.47949 -3.24182 -11.6887 
99 1 -3.75092 -3.80749 -9.16568 
117 1 -1.90892 -2.35658 -11.2506 
65 2 -0.217097 -3.99198 -12.5799 
129 2 -2.74921 0.204587 -12.0019 
399 2 -0.166202 6.18761 -12.5551 
108 2 -9.915 0.303834 -10.5486 
111 1 -7.6456 -0.103669 -11.8322 
127 2 -5.19971 1.26059 -11.7304 
141 1 -7.78486 2.60033 -10.6625 
132 1 -4.70207 3.80819 -11.4083 
106 1 -7.27338 -0.137828 -9.10789 
126 2 -3.7508 1.86134 -13.5367 
130 2 -2.34595 2.46634 -11.274 
134 2 -0.375287 0.290369 -11.1321 
125 1 -0.164779 2.59475 -9.47744 
398 1 -2.35622 4.51769 -13.0585 
306 2 -0.368076 8.50371 -1.72076 
205 2 -6.69137 4.61392 -9.23011 
409 2 -3.9016 6.41572 -11.2777 
412 2 -0.106002 7.64502 -10.446 
302 2 -3.10083 5.05982 -1.92717 
411 1 -1.8474 5.27342 -10.1081 
406 2 -2.47945 8.06767 -10.5229 
90 2 -10.1957 -5.8636 -7.12063 
94 2 -12.2353 -5.93914 -5.53768 
144 1 -10.2279 -7.98491 -5.10301 
74 1 -8.26074 -8.73933 -7.41458 
95 2 -5.24454 -5.88711 -8.53835 
91 1 -7.97379 -6.15501 -8.55441 
79 2 -7.52071 -8.56952 -4.33852 
82 1 -5.69751 -7.52884 -6.35261 
89 2 -8.04228 -6.48929 -5.8516 
59 2 -0.720333 -8.12404 -8.86693 
98 1 -3.38824 -7.70026 -8.32709 
88 2 -2.81212 -7.45182 -5.50341 
101 1 -0.645674 -6.34038 -6.75517 
104 2 -1.82315 -5.20061 -4.45992 
97 2 -3.26868 -5.52891 -6.95433 
92 2 -9.69056 -4.10844 -8.96359 
159 1 -11.5691 -3.67654 -6.86394 
182 1 -9.98418 -1.36609 -8.24446 
157 2 -12.5101 -1.11232 -7.58677 
161 1 -9.7786 -1.7149 -5.16517 
160 2 -12.384 -1.37096 -5.12134 
110 1 -7.03892 -3.23742 -8.83787 
96 1 -5.94909 -4.53396 -6.30649 
162 2 -8.80929 -3.78048 -6.68379 
181 2 -7.36488 -1.67515 -6.67714 
114 2 -4.78709 -2.00048 -7.44498 
169 2 -5.32728 -1.74809 -4.93158 
171 1 -3.02717 -3.20291 -5.44286 
102 2 -1.3208 -3.67019 -7.73346 
105 2 -0.279705 -3.91652 -5.2529 
121 1 -0.359031 -1.39229 -5.71516 
118 2 -2.54053 -1.32471 -7.6975 
120 1 -0.187373 -1.54033 -8.98089 
196 2 -3.17768 -0.689626 -5.3916 
179 2 -11.6847 0.951846 -8.78992 
184 2 -9.35951 1.62572 -8.60403 
188 2 -11.2162 3.4374 -7.30047 
183 1 -11.2588 0.831311 -6.08179 
180 2 -13.0934 3.02936 -5.44419 
264 2 -13.5406 0.716259 -4.48491 
133 2 -5.15397 1.76433 -9.29031 
185 2 -8.86613 2.87189 -6.40454 
186 2 -8.36902 0.533215 -6.68971 
189 2 -7.03106 2.50865 -7.89721 
192 1 -5.39933 0.460765 -6.72696 
209 2 -4.67666 3.30909 -7.41411 
193 1 -6.69018 2.58062 -4.95153 
204 2 -8.95246 4.06584 -8.39631 
195 2 -2.20972 0.516671 -9.43409 
201 2 -0.0964409 0.690412 -7.47439 
216 2 -0.0410816 3.0287 -6.37275 
213 2 -2.99487 2.92252 -8.99155 
194 1 -2.5061 1.5872 -6.742 
198 2 -0.234534 1.14129 -4.8597 
210 2 -4.01994 3.02042 -5.05143 
206 2 -9.59577 5.36715 -6.40387 
288 2 -12.12 5.31927 -5.50017 
203 1 -8.43907 6.89601 -8.42104 
207 1 -6.70516 5.1014 -6.74951 
405 1 -5.30404 7.66225 -9.28025 
202 2 -6.36621 8.14281 -6.90421 
293 1 -8.85084 7.92418 -5.33045 
208 2 -4.38376 6.30791 -6.84921 
211 2 -4.32333 5.09389 -8.97302 
418 2 -1.2516 7.35734 -6.04394 
408 2 -2.66372 7.22839 -8.26689 
413 2 -0.15661 6.54331 -8.1626 
212 1 -2.10886 4.77917 -7.01087 
158 1 -9.81759 -4.88163 -4.34361 
142 1 -12.011 -6.45039 -2.83267 
225 2 -10.5376 -4.86627 -1.40319 
145 2 -9.31059 -6.97481 -2.70067 
277 2 -5.25191 4.64572 -0.222083 
143 1 -10.4961 -8.80222 -0.789242 
80 1 -4.83926 -8.64394 -3.83298 
146 1 -7.00428 -8.40682 -1.75989 
148 2 -4.78602 -6.56296 -1.83447 
149 1 -6.984 -5.8516 -3.34446 
164 1 -6.04275 -4.75378 -0.5662 
435 2 -2.17965 8.83893 -3.54829 
170 2 -4.29648 -5.72272 -4.50329 
100 2 -0.352624 -7.33851 -4.1135 
154 2 -2.59461 -6.98817 -3.04734 
151 1 -0.436557 -7.28831 -1.28067 
152 1 -3.48804 -8.64067 -0.951684 
173 1 -2.97508 -4.42785 -2.00004 
175 2 -1.05677 -4.58938 -0.183266 
242 1 -13.763 -1.59448 -2.90888 
221 2 -13.0517 -3.89047 -1.82787 
156 2 -12.3545 -3.79865 -4.17973 
163 1 -10.7836 -2.47932 -2.37909 
244 2 -12.5455 -1.04387 -0.642603 
190 2 -7.22897 -0.370218 -4.44903 
167 2 -7.53479 -3.25123 -4.31919 
250 2 -8.88219 -0.564529 -2.52941 
165 2 -8.34808 -3.86083 -2.06416 
166 2 -5.34314 -3.69393 -3.48205 
168 1 -6.58623 -1.77559 -1.98501 
174 2 -4.60428 -2.46707 -0.535689 
172 2 -3.83743 -1.55623 -2.99831 
176 2 -1.28957 -2.66909 -3.40763 
177 1 -1.91212 -1.91071 -0.859812 
246 2 -13.8654 0.963224 -1.61953 
266 2 -13.746 3.49496 -0.68681 
265 2 -13.1566 2.69972 -3.06904 
267 1 -10.6449 3.45499 -4.17863 
248 1 -11.4197 0.642697 -2.85758 
268 2 -11.4959 3.36812 -1.49092 
272 1 -8.9752 1.95134 -1.70562 
187 2 -9.14442 1.21123 -4.41391 
191 2 -5.00992 0.478771 -3.92228 
276 2 -6.7337 1.03519 -2.50366 
279 2 -7.02229 4.12859 -2.49868 
278 2 -6.63678 2.72546 -0.643231 
274 2 -4.73658 0.063653 -1.43847 
275 1 -4.44181 2.77642 -2.50985 
253 2 -7.23744 0.14394 -0.111517 
709 2 -0.364074 4.39544 -1.08366 
197 1 -2.3105 0.699756 -3.20612 
284 2 -1.99665 2.81904 -1.27535 
214 1 -1.46951 3.80224 -4.00362 
283 2 -2.43451 0.669682 -0.210611 
270 2 -9.46547 4.80574 -2.29458 
355 2 -12.3072 7.74624 -1.36456 
291 2 -12.0341 7.78479 -3.73261 
292 2 -10.4252 6.2586 -3.90275 
269 1 -12.8402 5.52618 -2.62347 
342 2 -10.2105 6.69815 -1.13554 
280 2 -7.66726 5.32207 -0.519973 
296 2 -6.13764 7.16192 -4.74125 
294 2 -8.32326 6.7193 -2.9474 
299 2 -7.13211 8.86349 -3.01453 
298 1 -5.74735 6.63329 -2.04851 
271 2 -8.08079 4.86639 -4.48944 
297 2 -5.45969 4.83271 -4.2596 
295 2 -4.59957 8.74167 -3.41842 
305 1 -2.95472 7.69316 -1.1618 
301 1 -3.2243 6.37021 -4.36566 
304 2 -1.10168 6.18152 -2.49054 
360 1 -7.84248 8.02802 -0.0443935 
199 2 -0.0204472 -0.794318 -2.86715 
423 1 -3.76187 8.76712 -6.17209 
290 1 -9.95164 8.95243 -2.41414 
223 2 -12.291 -5.85129 2.27716 
230 2 -10.0284 -4.76204 2.74925 
13 1 -10.4224 -7.71524 2.10571 
233 2 -7.10119 -5.1601 1.9445 
32 2 -7.67112 -7.52303 2.55068 
235 1 -5.20813 -6.68894 3.64202 
147 1 -5.90713 -7.57516 0.662575 
229 1 -8.03573 -5.75797 4.53837 
20 2 -3.75522 -8.72313 2.18387 
583 2 -0.230337 -6.97645 1.62476 
238 2 -3.15085 -5.01924 3.85247 
236 2 -1.20127 -4.86549 2.56859 
155 1 -1.75062 -7.47752 3.81638 
150 1 -3.12381 -6.16572 0.864627 
37 2 -4.34739 -9.05557 4.61339 
153 2 -1.72825 -8.75227 1.0066 
226 2 -12.3065 -3.73751 3.40919 
222 1 -11.7906 -3.68023 0.56896 
224 1 -10.3756 -1.97448 2.70916 
756 1 -0.101964 -3.5126 10.8336 
245 2 -12.6149 -0.825108 1.80423 
237 2 -5.77497 -3.96361 3.57767 
231 2 -8.11533 -3.22234 3.38072 
251 1 -8.71909 -3.32337 0.719013 
252 2 -6.15378 -2.68824 1.29978 
254 1 -7.66261 -0.625616 2.44887 
257 2 -5.51645 -1.5204 3.54254 
258 1 -3.39111 -3.28227 1.78007 
260 2 -3.36099 -0.527305 3.76399 
261 2 -1.98895 -0.790394 1.82908 
686 2 -1.57923 -2.28334 3.81715 
608 2 -0.355717 -2.55438 1.25364 
259 1 -4.61971 -0.306642 1.12758 
243 2 -10.4797 0.610443 2.43519 
273 2 -9.79167 3.87287 0.0158597 
249 1 -11.9503 1.59015 0.354976 
343 1 -10.457 3.52756 2.42236 
338 2 -13.2567 3.48431 1.81284 
324 1 -12.6212 1.5311 3.71492 
256 2 -8.88059 1.65236 1.04914 
255 2 -6.49812 1.68891 1.55637 
281 1 -7.4105 4.16122 1.68801 
327 2 -8.31995 1.96802 3.47161 
282 2 -4.60397 3.66095 2.32987 
337 1 -5.36966 1.49903 4.06072 
350 2 -6.34828 4.31371 4.08253 
830 2 -1.99109 8.288 9.93815 
263 1 -2.56669 1.77098 2.34018 
285 2 -4.25386 2.41739 0.171282 
708 2 -0.467075 2.64859 0.701307 
287 2 -1.10272 4.01933 2.91402 
339 1 -12.0749 5.55438 0.590724 
345 2 -9.42874 6.08447 1.16649 
356 1 -10.7296 8.40706 0.789576 
340 1 -10.753 6.51182 3.57101 
346 2 -8.77157 4.55881 4.37615 
365 1 -4.967 6.83419 0.971553 
396 1 -3.70153 6.42429 11.2073 
347 1 -7.39868 6.90305 2.81922 
368 2 -4.55505 8.29446 3.37444 
286 1 -2.50944 4.83376 0.716246 
307 2 -0.64412 7.04137 0.300269 
367 2 -2.49329 7.51258 1.98822 
786 2 -0.468009 6.58216 2.94035 
351 1 -3.7345 5.63447 3.58655 
227 1 -11.1485 -5.95633 4.85246 
29 2 -9.65881 -8.07678 4.67402 
41 2 -10.632 -5.2735 7.48146 
30 2 -9.21898 -7.02995 6.75072 
36 2 -6.56121 -6.69536 6.76028 
234 2 -8.23955 -4.72349 7.11494 
240 2 -5.24216 -4.85757 5.90988 
43 1 -5.18535 -5.29624 8.49272 
33 2 -7.69232 -8.46141 8.15939 
31 1 -7.05396 -8.76976 5.11733 
470 2 -0.51563 -7.1313 6.24505 
469 2 -3.34385 -7.19547 9.12182 
667 1 -0.867877 -4.48723 5.49409 
35 1 -3.33961 -6.97005 6.34408 
666 1 -0.958137 -5.78332 8.54651 
473 2 -1.32059 -8.48893 8.08213 
310 2 -12.331 -3.78375 6.2295 
315 1 -9.91319 -3.20576 5.51947 
311 2 -11.6723 -1.65193 7.04818 
309 1 -12.6927 -1.45742 4.54906 
328 1 -9.99648 0.112318 5.01806 
314 1 -10.5367 0.0457632 8.68494 
312 1 -9.73016 -2.91551 8.666 
318 2 -6.9797 -3.33154 8.56349 
232 1 -6.87542 -2.55661 5.9678 
313 2 -8.3573 -0.696008 7.15665 
262 2 -4.65642 -0.851384 5.75308 
321 2 -4.69465 -2.80453 7.40002 
239 2 -3.89628 -2.97845 4.81551 
241 2 -2.90329 -4.3603 6.98316 
753 2 -2.29383 -3.10141 9.08613 
671 1 -2.21622 -1.69785 6.59267 
317 2 -4.03975 -0.550483 8.53902 
323 2 -12.1706 0.886261 6.4895 
325 2 -12.6182 4.55558 4.00699 
330 2 -10.6875 2.90424 5.06901 
331 2 -10.8091 2.57124 7.47673 
332 2 -7.36756 -0.0621938 5.06255 
333 1 -5.99989 0.817662 7.29949 
329 1 -8.28614 2.26939 6.16086 
334 1 -5.00225 3.70401 6.41777 
378 2 -6.84441 3.25467 8.19262 
377 2 -9.11161 4.15049 8.37755 
326 2 -8.39297 1.62641 8.75884 
689 2 -1.16585 0.172421 4.30651 
772 1 -0.650845 1.93348 8.18247 
335 1 -2.9294 1.18229 6.23486 
773 2 -0.855856 2.6798 5.20795 
771 2 -2.25249 3.87709 6.92563 
349 2 -3.06607 3.33595 4.51732 
382 1 -10.729 5.23444 6.16919 
384 2 -10.4523 8.17196 5.89482 
385 2 -9.2299 6.74302 7.71472 
348 2 -7.72234 4.9579 6.52236 
383 1 -7.39377 8.60802 7.50211 
352 1 -5.90246 6.67624 5.67022 
344 2 -8.48117 7.07393 5.23506 
387 1 -6.47043 5.86222 8.54288 
788 2 -1.2083 5.22901 5.24814 
353 2 -3.39022 6.09418 6.43155 
354 1 -1.95659 7.79856 5.02516 
792 1 -1.14143 6.46736 7.75256 
388 1 -4.16166 7.65395 8.44153 
386 2 -3.64284 5.03258 8.60551 
45 1 -5.79659 -7.96469 10.0523 
42 1 -8.11884 -6.03374 9.43255 
44 2 -5.53798 -5.4505 11.3211 
486 2 -0.583811 -5.71725 12.5494 
483 1 -1.34777 -8.06644 10.8587 
485 1 -2.79202 -5.09478 10.8214 
47 2 -3.82567 -7.41549 11.6498 
46 2 -7.44762 -3.56066 10.7504 
322 1 -6.53036 -1.75563 12.6266 
40 2 -9.29244 -1.68286 11.2793 
316 1 -7.25567 -0.817162 9.67159 
319 1 -4.81763 -2.82233 10.1727 
757 1 -0.542685 -0.473305 12.4506 
484 2 -4.37429 -3.5262 12.816 
754 2 -2.48343 -2.21715 11.3542 
755 1 -1.45422 -0.575227 9.36845 
752 1 -4.25887 0.0418759 11.2509 
838 2 -1.52639 5.19585 12.4047 
39 1 -5.04673 -8.94027 7.56136 
373 2 -10.5373 2.63101 9.88538 
374 2 -9.19432 0.877028 11.1222 
375 2 -7.02638 0.73777 12.0337 
320 2 -6.22777 1.77217 9.95264 
380 1 -7.99928 3.47759 10.8768 
381 2 -5.16752 4.25583 10.3414 
393 1 -5.61888 2.88451 12.7151 
825 2 -0.765507 2.76137 12.5011 
770 2 -1.88906 1.57944 10.8193 
823 1 -1.47654 4.28892 9.88608 
336 1 -3.83153 2.36146 9.02539 
824 2 -3.1513 3.41877 11.8728 
821 2 -2.78481 1.24735 13.1856 
392 2 -6.62101 5.61567 11.6762 
379 2 -8.56532 6.20089 10.138 
394 1 -6.44883 8.10453 10.4453 
228 1 -8.73897 -6.3071 -0.117137 
395 2 -4.23669 9.36954 10.6368 
820 2 -3.1154 -1.10549 13.3941 
220 2 -11.7961 -6.58519 -0.0890614 
247 1 -10.0897 -0.605799 0.109181 
376 2 -5.05258 0.404347 13.8852 
487 1 -1.81696 -3.55135 13.4711 
404 2 -5.48605 10.4417 -7.30078 
427 2 -5.45797 12.0578 -5.46639 
424 2 -6.19064 9.60934 -5.06576 
407 2 -3.52976 9.94613 -8.62824 
421 2 -1.04591 11.8217 -8.19841 
410 1 -0.976079 9.24254 -8.27057 
426 1 -3.13318 12.0005 -6.68433 
431 1 -0.928634 10.3521 -5.47669 
433 2 -0.448798 14.374 -1.84176 
439 2 -3.30989 13.7122 -1.41952 
289 2 -8.5545 10.445 -4.33254 
422 2 -7.16772 12.6698 -3.55511 
425 2 -5.71003 10.843 -3.01559 
429 2 -4.68897 12.9592 -3.44116 
357 1 -7.77782 10.9011 -1.38462 
438 2 -5.60035 12.7777 -1.30232 
300 2 -5.46215 9.19396 -0.906636 
434 1 -3.35396 10.8594 -1.59683 
428 2 -3.4072 10.7792 -4.3099 
430 2 -0.908267 10.6342 -2.8049 
436 1 -1.94208 13.0333 -3.74746 
443 2 -1.31335 12.3131 -1.06209 
397 2 -2.78912 10.5626 9.14165 
361 2 -6.39989 9.25163 2.09057 
364 1 -5.67215 11.4225 0.722483 
359 2 -8.43158 10.3501 1.19203 
363 1 -7.64852 11.5807 3.48233 
371 1 -4.78256 11.1554 3.67393 
442 1 -2.81801 12.3652 1.26634 
308 1 -1.22401 9.592 0.748746 
369 2 -3.9051 9.51193 1.2377 
370 2 -2.37948 9.92051 3.10387 
804 2 -0.735075 11.6279 2.95709 
366 2 -2.60449 12.6966 4.17347 
440 2 -4.92952 13.6377 2.50653 
879 2 -0.935723 14.0414 2.71494 
441 2 -1.7974 14.6747 0.26135 
362 2 -6.38494 11.2397 5.9735 
390 2 -8.69729 10.2817 5.81124 
389 2 -5.3534 10.3957 8.49113 
358 2 -6.73985 9.10166 4.61256 
835 2 -2.06768 9.17876 7.41884 
372 1 -4.39862 9.18868 6.07754 
810 2 -1.55271 10.5139 5.17214 
391 1 -3.31287 11.7868 6.62457 
882 2 -0.334816 12.785 5.12784 
836 1 -0.492265 11.4484 7.6408 
341 1 -9.25185 9.02156 3.3955 
54 2 0.336219 -10.7054 -7.89127 
491 2 3.11182 -10.8556 -7.05766 
512 2 1.60618 -12.0305 -5.81818 
86 1 0.777103 -9.35603 -5.67407 
492 2 4.28599 -12.3126 -5.09385 
493 2 6.98217 -9.42527 -8.07951 
494 2 5.18093 -9.97784 -6.17013 
495 2 4.50016 -9.09438 -8.47839 
446 1 2.31777 -13.3639 -3.47739 
514 1 3.13788 -10.2948 -4.05004 
87 2 0.356357 -11.45 -3.85788 
515 2 1.83529 -11.1787 -1.89336 
445 2 0.333229 -13.1727 -1.23279 
447 2 2.93826 -13.1909 -0.909635 
513 2 3.94227 -11.0166 -0.544276 
511 2 0.692348 -9.30465 -2.84555 
520 2 6.08953 -10.4305 -3.78727 
519 2 8.71508 -10.0239 -3.10665 
518 2 4.83806 -12.1453 -2.54078 
521 1 6.85983 -10.5458 -1.12719 
450 2 5.57408 -12.9862 -0.214652 
525 1 9.89597 -10.6569 -0.588782 
48 2 0.191069 -9.93047 -10.3053 
516 2 4.65919 -9.17084 -2.0475 
454 2 2.44248 -13.3945 3.3859 
455 2 1.07004 -13.8442 1.37813 
457 2 1.05486 -11.5601 2.56743 
587 1 3.21421 -9.91352 2.31983 
585 2 0.489594 -9.48972 0.998578 
449 2 3.65359 -12.5555 1.44425 
448 2 1.58547 -11.4986 0.309428 
451 1 7.70002 -12.1448 1.35605 
461 1 4.77643 -12.0066 3.80862 
465 2 7.3286 -10.7037 3.55828 
452 2 5.42822 -10.9769 1.37071 
517 2 7.51936 -9.61713 1.35476 
598 2 9.45367 -10.2243 2.53726 
458 1 1.81988 -10.9092 4.89528 
462 2 4.14973 -9.52092 4.82222 
472 1 0.788149 -10.4459 7.86949 
477 1 3.76862 -9.25751 8.43627 
463 2 4.18142 -11.1507 6.44394 
464 1 6.54817 -9.75775 6.09306 
482 2 6.70468 -9.34164 8.81246 
466 2 8.68645 -8.96046 4.4695 
71 1 2.97546 -0.805751 -14.0908 
128 2 1.36403 1.27475 -14.6362 
400 2 1.60545 3.56976 -13.8503 
72 2 3.5756 1.79135 -13.968 
67 2 1.86947 -3.35499 -13.5451 
61 2 3.30529 -7.5635 -10.4422 
60 2 1.24063 -5.98791 -8.93942 
68 1 1.91051 -5.46152 -11.7753 
49 2 0.715737 -7.52077 -10.8218 
51 2 4.13245 -5.06197 -13.5425 
489 2 4.6123 -5.61709 -10.9954 
496 2 6.16231 -7.26341 -9.33409 
504 1 7.62482 -5.12839 -10.0077 
490 2 6.33939 -4.95131 -12.4638 
505 2 10.2292 -5.50977 -8.74428 
66 2 2.88405 -4.0711 -9.77289 
502 1 4.3335 -3.02202 -11.9576 
123 1 1.38012 -1.91285 -11.318 
103 2 0.308366 -3.94315 -9.97475 
135 2 3.59357 -0.273744 -11.5439 
659 1 10.1527 5.37798 -2.01636 
503 2 5.25626 -3.72878 -9.41526 
501 2 7.06242 -2.70336 -11.1761 
565 2 5.5598 -0.960631 -10.3254 
508 2 5.70762 -0.975652 -12.8372 
506 1 9.66432 -2.95972 -9.52347 
566 2 4.16965 1.17697 -9.49115 
138 2 1.93113 0.607392 -9.44519 
137 1 1.92679 1.71866 -11.9545 
136 1 2.94739 3.70651 -9.88859 
840 2 3.95085 3.79368 -12.6694 
139 2 0.0650407 3.78315 -11.8306 
509 1 8.06675 -0.415099 -11.3225 
510 1 5.57855 1.56223 -11.9218 
570 1 8.13896 3.0747 -10.8874 
567 2 5.60479 3.49358 -10.0157 
575 2 9.95197 1.94182 -9.0132 
843 1 4.51848 6.20192 -10.9837 
402 2 2.04726 5.30091 -12.2629 
403 2 2.18479 7.57583 -11.3304 
401 2 0.849184 5.3629 -10.0994 
419 2 4.07966 8.94326 -10.1008 
842 2 6.20876 4.54892 -12.1552 
844 1 7.36968 5.98542 -9.72942 
845 2 9.7803 4.72757 -9.09922 
62 1 1.79777 -8.67749 -8.46242 
497 1 3.91656 -6.04685 -8.35062 
531 2 3.36017 -8.31383 -6.17775 
527 2 1.91642 -6.51084 -6.41409 
532 2 4.20503 -6.17049 -5.6204 
529 2 2.16635 -4.71311 -4.90058 
499 1 8.3929 -7.11485 -7.38137 
498 2 5.68661 -7.67093 -6.76456 
533 2 4.90483 -8.21577 -4.42776 
535 2 7.30755 -8.96637 -5.53111 
539 1 6.83802 -6.04714 -4.76182 
547 2 6.42297 -5.25739 -7.6891 
537 1 9.57707 -7.70902 -4.46612 
500 2 10.6194 -6.25043 -6.38999 
543 1 12.1323 -5.70346 -4.1998 
554 2 9.30215 -4.74111 -4.9026 
119 1 3.42638 -1.66088 -8.97496 
122 1 1.56525 -3.77033 -7.34679 
548 2 3.19676 -2.35434 -5.76078 
124 2 1.78647 -0.793389 -7.17542 
550 2 4.66238 -3.58654 -7.03086 
552 2 4.64343 -4.14846 -4.46657 
536 2 8.67919 -4.41921 -7.37225 
551 1 7.05084 -2.23358 -8.1506 
558 2 7.05685 -3.71894 -5.76417 
549 2 5.87609 -2.06715 -4.52846 
557 2 7.2599 -0.567298 -5.84006 
572 2 9.19617 -0.50473 -8.74835 
507 2 11.36 -1.48381 -8.27925 
560 1 11.5485 -3.83659 -6.93444 
559 1 9.37831 -1.97756 -6.34628 
562 2 11.1035 -3.00381 -4.29231 
563 1 12.2921 -0.81525 -5.51458 
140 1 2.39689 2.05601 -7.19859 
644 2 4.03114 2.4009 -5.08849 
553 1 4.62185 -0.151325 -6.80555 
645 2 3.26329 4.50731 -6.64464 
568 1 6.84103 0.876197 -8.84437 
569 2 5.19435 2.66229 -7.48918 
571 1 6.86382 1.93298 -5.28185 
576 2 8.81996 1.23397 -7.15342 
573 1 7.58076 3.65403 -7.76242 
648 2 5.50201 4.38972 -5.73832 
657 1 8.49624 4.37224 -4.76263 
574 1 9.75487 0.872464 -4.5784 
577 2 11.2521 0.737655 -7.37105 
579 2 12.2836 1.96456 -5.35445 
578 1 10.503 3.43766 -6.55125 
217 1 0.931954 5.63082 -5.53593 
416 1 2.75387 6.77955 -8.52789 
849 1 4.33058 6.97565 -5.79968 
215 2 1.13356 4.46208 -7.82442 
415 1 1.49735 8.49649 -6.40333 
841 2 5.12026 5.01041 -8.14264 
857 2 8.27509 7.77131 -8.16288 
851 2 5.48565 7.47533 -8.29848 
850 2 6.88057 6.21216 -6.7149 
846 2 9.32243 5.99066 -6.95338 
855 1 9.41733 8.50624 -5.69985 
861 1 11.3907 5.83934 -4.7332 
530 1 2.35752 -7.15962 -3.57727 
605 2 2.38615 -5.94708 -1.13204 
660 2 13.9227 4.64198 -0.931919 
582 1 2.33916 -8.59011 -0.888515 
528 2 2.94717 -4.26416 -2.68701 
178 1 0.288491 -4.86378 -2.61505 
538 2 6.93161 -8.23418 -2.99181 
534 1 5.01579 -6.31717 -2.1057 
522 1 7.00684 -7.60442 -0.127432 
540 1 8.46608 -5.47652 -2.3294 
609 2 6.46258 -4.84572 -0.247803 
544 2 10.9558 -9.20372 -2.66045 
542 2 10.8888 -6.62679 -1.75756 
523 2 9.07386 -8.20853 -1.64577 
858 1 11.1431 8.25916 -3.08942 
545 2 13.2905 -5.06875 -1.7817 
303 2 -0.0542058 7.61834 -3.99646 
862 2 12.6615 6.46063 -2.1798 
625 2 1.58762 -2.61329 -4.08947 
630 1 4.24739 -1.96417 -2.56609 
604 1 1.2415 -2.65303 -1.11448 
606 2 3.91298 -3.63774 -0.364893 
627 2 2.21781 -0.117499 -1.93056 
556 1 8.45833 -2.33271 -3.52637 
541 2 6.20859 -3.93771 -2.60801 
611 2 8.65541 -3.36602 -0.763688 
614 1 6.43208 -2.07733 -0.57228 
555 2 5.27099 0.186502 -4.11602 
564 1 13.4672 -2.39931 -2.95223 
639 2 9.08807 -0.994544 -1.05475 
580 2 10.7965 -0.961354 -3.11731 
546 1 10.9907 -3.69113 -1.7834 
561 2 11.8025 -1.01106 -0.884299 
621 2 13.1972 -2.94629 -0.0740429 
641 1 14.6344 -0.76283 -0.520339 
218 2 1.68433 2.90642 -4.6248 
634 2 6.30475 0.589076 -0.043356 
626 1 2.33597 0.153867 -4.61832 
629 1 4.13794 1.8216 -2.21135 
652 2 2.22395 3.89335 -1.31821 
200 1 0.361405 1.93531 -2.25538 
654 2 8.5379 4.09679 -0.175587 
635 2 6.51811 2.91357 -0.869466 
636 1 7.24944 0.470623 -2.56136 
637 2 8.56095 1.51364 -0.25697 
656 2 8.68931 3.03728 -2.51523 
653 2 6.24247 3.65732 -3.28798 
664 1 13.4506 4.02201 -3.51925 
581 1 12.9162 0.865658 -2.83777 
661 2 12.0061 3.05685 -1.35332 
633 2 10.3642 1.21347 -1.80156 
662 2 12.6309 1.04316 0.107894 
655 2 10.8997 3.27967 -3.54373 
663 2 14.4003 2.24176 -1.03081 
863 2 3.06021 8.83156 -1.64858 
735 1 1.63418 6.56469 -1.47964 
651 2 4.7146 7.12977 -3.00353 
646 2 2.4268 7.4609 -3.80114 
649 1 3.558 4.73345 -3.72227 
219 2 0.85074 4.54228 -3.21441 
650 2 4.68725 4.50881 -1.14575 
736 2 4.89436 6.91305 -0.586629 
860 2 6.92741 8.49752 -3.86024 
742 1 8.57046 8.27834 -1.5332 
859 2 8.8191 6.85132 -3.76029 
658 1 6.95702 5.77052 -1.8046 
647 2 6.39721 6.17549 -4.32745 
876 2 10.9604 7.88988 -0.445004 
628 1 3.94692 -0.363643 0.0636336 
631 2 2.24169 1.80076 -0.265617 
588 1 1.14832 -6.16504 4.00015 
586 2 3.30443 -4.29462 3.18557 
590 2 3.51055 -7.48068 3.51144 
584 2 2.05943 -7.57237 1.49593 
603 1 1.34669 -4.86754 0.99452 
594 1 4.32177 -5.87213 1.22932 
589 2 0.859813 -8.75806 3.29643 
592 2 5.26413 -5.56885 3.96161 
591 1 5.99882 -8.31947 3.13593 
597 2 6.83683 -5.74947 2.08053 
600 2 8.64671 -7.2151 2.80526 
476 2 1.31727 -8.9471 10.35 
596 2 4.75804 -8.74109 0.404798 
616 1 10.7521 -4.84027 3.04626 
601 1 11.2662 -7.72715 2.97519 
524 2 9.38545 -8.41249 0.951403 
615 1 9.34385 -5.77948 0.604559 
620 1 12.28 -5.69232 0.523218 
599 2 9.45792 -6.56642 4.86149 
687 2 0.800207 -3.46834 3.33061 
691 2 0.42878 -0.945047 2.93974 
692 2 2.64737 -1.10498 4.13662 
607 1 2.55669 -2.0389 1.67799 
613 1 7.76245 -4.41102 4.12747 
696 1 5.10561 0.0384798 2.93161 
697 2 6.94848 -1.71873 4.1454 
632 1 7.87121 -0.537779 1.73293 
610 1 5.40535 -3.04166 1.94298 
612 2 8.04349 -3.58334 1.54903 
619 2 9.0546 -2.25572 3.25722 
617 2 11.4969 -2.17694 3.62641 
638 2 12.7505 -1.02991 1.59901 
618 1 10.5141 -2.74947 1.04172 
622 2 13.2005 -3.49064 2.18683 
623 2 12.9381 -3.79296 4.63988 
624 2 13.5172 -0.862827 3.88954 
710 1 0.244413 0.0737757 0.269807 
711 2 2.25302 0.668257 2.04916 
713 2 0.233806 1.8001 2.962 
714 2 3.17707 2.23607 3.61875 
715 2 1.7919 3.06374 1.66316 
712 1 1.33691 4.37719 3.99997 
718 1 4.64113 2.66308 1.0542 
699 1 7.85306 0.953583 4.6569 
720 2 5.51643 2.26713 4.16744 
721 1 7.44052 2.51438 1.9405 
722 2 7.26402 3.83308 4.23402 
806 1 0.456949 9.24982 3.79228 
727 2 9.56454 3.05454 3.88028 
728 2 12.2054 3.05571 3.27895 
726 1 10.7947 0.352611 3.42588 
723 1 10.5102 2.84412 1.22691 
643 2 13.4004 3.2871 1.05379 
640 2 10.3857 0.129301 0.685545 
642 2 13.6579 1.15941 2.36682 
716 2 0.468823 5.18892 1.20182 
733 1 3.09111 5.34508 0.96384 
734 1 1.71273 8.33828 1.10792 
811 2 2.31788 6.8424 3.46338 
719 1 4.50849 4.72027 3.51199 
741 2 4.54288 7.31794 2.06932 
740 1 6.47075 5.34517 1.10334 
744 2 6.86966 7.94573 0.701831 
739 2 6.81946 6.19891 3.61499 
750 2 8.44844 7.56626 2.64667 
743 2 9.16414 6.39458 0.50226 
746 2 8.94664 4.96019 2.38419 
732 2 11.032 5.20716 3.56952 
665 1 11.774 5.51188 0.63674 
749 2 10.8179 7.41667 1.9581 
747 2 10.2803 7.76669 4.18149 
676 2 3.46751 -5.41298 5.56096 
459 1 2.15982 -8.11943 6.00113 
668 2 1.29333 -5.60845 6.9011 
474 2 1.18672 -7.57612 8.47784 
672 2 3.49061 -6.48536 7.73964 
593 2 7.11358 -7.02704 5.36482 
595 2 4.87857 -7.35976 5.60632 
678 1 5.94002 -4.91296 6.72236 
480 2 5.87882 -7.28561 7.67111 
681 2 8.71819 -5.05067 6.70303 
682 2 7.54431 -3.75285 8.65913 
680 1 8.8377 -7.88802 7.2062 
602 2 10.8888 -8.39759 5.66346 
679 1 11.4672 -5.47514 6.17251 
683 2 10.2906 -5.6623 8.70173 
677 2 3.30516 -3.85993 7.38467 
670 2 1.94441 -3.62961 5.44391 
669 1 0.46736 -2.96603 7.98419 
690 2 0.483183 -1.71346 5.31536 
769 2 0.117217 -0.339363 7.35695 
694 1 2.86044 -1.06939 7.03037 
693 1 4.66159 -2.78501 4.959 
700 2 7.64562 -2.69573 6.40837 
695 2 5.92447 -0.655956 6.18237 
675 1 5.44392 -2.23941 8.50649 
701 2 10.2249 -3.38364 5.28849 
703 2 9.3502 -1.15008 5.57217 
707 1 12.1259 -1.34037 6.18206 
684 1 9.95844 -2.92166 8.06432 
705 2 10.6278 -0.204585 8.26857 
698 2 4.01934 0.622142 5.36248 
775 2 2.06167 1.29409 8.08677 
688 1 1.32191 1.11267 5.34421 
789 1 0.85654 4.22312 7.06021 
797 1 3.5003 3.17678 6.24926 
704 1 7.96787 0.350435 7.64535 
779 1 4.95242 1.02891 7.99621 
780 2 5.2529 3.71063 8.29214 
717 2 6.40831 2.59545 6.34119 
800 1 8.0062 3.86125 8.3658 
725 2 8.99291 2.87575 6.24877 
706 2 13.0631 1.22986 4.95937 
724 2 10.3756 0.852116 6.12223 
729 1 11.5255 3.58196 5.86643 
702 2 12.6213 1.31175 7.36616 
751 2 10.4489 2.34136 8.29849 
794 2 3.60861 5.53415 8.18861 
793 2 2.94633 5.79547 5.69878 
805 2 0.175457 8.99639 6.35596 
791 2 0.735896 6.67812 5.26788 
808 2 2.45039 8.43425 5.4774 
790 1 1.67641 7.2314 7.97896 
796 2 4.41208 7.50511 7.02347 
795 1 6.00079 5.41136 6.27978 
814 2 4.79547 7.34209 4.50906 
816 1 7.32144 8.18707 5.46782 
803 2 7.93356 6.77 7.96832 
813 2 6.26708 8.91611 7.74482 
730 1 8.93698 5.51546 5.50669 
802 1 10.546 5.37255 8.15856 
731 2 11.6433 6.35955 5.59007 
745 2 9.83691 7.70802 6.82749 
673 2 2.04441 -5.03551 9.29619 
479 2 2.98763 -7.11236 10.236 
475 2 0.629672 -6.45564 10.8545 
488 1 2.63196 -4.61181 11.9881 
674 1 4.98501 -5.00742 9.6022 
481 1 7.74192 -6.26925 9.39649 
478 2 5.36263 -7.75712 10.055 
767 2 5.2839 -4.2505 12.4664 
765 2 2.67559 -2.76565 9.4509 
801 2 8.58014 5.83243 10.0437 
763 2 0.714499 -3.05102 13.4511 
758 2 1.2276 -0.47051 9.77803 
761 2 1.99506 -1.8896 11.8322 
766 2 3.53697 -0.551842 10.0317 
798 1 5.99813 6.24623 9.52211 
837 2 8.08065 -1.53301 9.75003 
685 2 7.1001 -3.57706 10.9303 
782 2 6.05832 -0.0582202 10.2268 
759 2 4.59283 -2.41646 11.0844 
760 2 4.4487 -0.351174 12.1908 
768 1 6.91502 -1.40374 12.3972 
774 2 2.2971 0.500391 12.0653 
826 1 1.03342 2.12306 10.7211 
776 2 3.05539 3.44239 9.32474 
839 2 0.800828 4.61034 12.0409 
828 1 3.13057 3.30507 12.5194 
778 2 4.01812 1.63802 10.6365 
799 2 4.24366 8.42034 9.21423 
784 1 6.2432 1.66386 12.6133 
783 2 6.51288 2.19318 9.8849 
777 2 5.0024 3.9365 10.8979 
829 2 7.47414 3.96474 11.2153 
785 1 8.93716 1.04107 10.3763 
781 2 10.0207 3.68196 10.2787 
831 1 -0.0753608 6.9394 10.8639 
833 1 2.99326 5.99973 11.0255 
834 2 2.00197 8.69924 10.3104 
787 2 1.09873 4.80184 9.49153 
526 2 11.4638 -8.39359 -0.255954 
762 2 1.54395 -0.588843 14.0653 
827 1 3.74511 1.05125 14.3763 
764 1 3.66412 -2.20782 13.9003 
822 2 1.07847 1.79684 13.7002 
414 2 1.67485 9.1005 -9.41896 
848 1 3.77569 9.77474 -7.61444 
420 2 3.06445 12.4185 -6.79048 
417 2 1.18247 10.9255 -7.608 
847 2 1.87695 11.0417 -5.1983 
437 1 0.265579 13.1748 -6.29104 
854 2 5.20955 11.4872 -6.12609 
853 2 6.44379 9.51996 -9.21174 
852 1 6.45851 9.15154 -6.35771 
869 2 2.74688 13.4222 -1.18497 
864 1 4.0118 9.7312 -4.52984 
432 2 1.38637 9.57389 -3.41624 
865 1 1.17855 12.7705 -3.3609 
868 2 3.32477 11.1743 -2.34257 
877 1 4.25793 13.0165 -4.33507 
867 1 1.01077 10.848 -0.867892 
878 1 5.43811 12.829 -1.47758 
856 2 8.78589 10.0213 -3.42574 
870 2 6.60115 11.0369 -4.06004 
872 2 7.86772 11.0987 -1.40603 
871 1 5.65708 9.61117 -1.69835 
873 2 10.3434 10.1871 -1.46236 
866 1 3.56342 11.416 0.44692 
883 2 1.23412 10.938 1.76982 
444 1 0.501399 13.259 0.550519 
809 1 3.52811 9.84793 3.40476 
880 1 1.92562 12.8295 3.43161 
738 2 4.42585 8.92045 0.618785 
815 2 4.64618 9.44668 5.90423 
874 2 6.35384 10.9133 0.725802 
812 2 7.79357 11.6363 2.60293 
884 1 5.0682 12.2252 2.88458 
737 1 6.3341 9.31134 2.84874 
875 1 9.12109 9.7415 0.958564 
748 2 8.9598 9.75518 3.90616 
881 2 3.36652 13.7594 1.42736 
819 2 3.89303 11.6968 5.38324 
807 2 1.51394 11.0169 5.43002 
818 1 2.53644 10.2064 7.82011 
817 1 6.68856 11.2044 5.12203 
832 2 0.00212086 9.06974 8.78935 
