ITEM: TIMESTEP
70000
ITEM: NUMBER OF ATOMS
884
ITEM: BOX BOUNDS pp pp pp
-2.7057867000000002e+01 2.7057867000000002e+01
-2.7057867000000002e+01 2.7057867000000002e+01
-2.7057867000000002e+01 2.7057867000000002e+01
ITEM: ATOMS id type x y z 
93 2 -5.07615 -10.3236 -9.12173 
81 2 -4.59264 -11.9799 -4.36835 
91 1 -5.94507 -10.3028 -6.20142 
58 2 -1.9993 -11.8301 -5.48652 
55 2 -3.2574 -10.5349 -7.34204 
95 2 -3.55113 -9.92113 -5.0582 
116 2 -1.15629 -9.85789 -8.43194 
56 2 -2.88586 -13.7448 -4.09069 
53 1 -1.94225 -14.2092 -1.35952 
73 2 -9.24371 -10.8884 -1.2401 
74 1 -7.55231 -11.3891 -3.7038 
75 1 -6.77244 -11.9683 -0.701508 
82 1 -4.90966 -9.96246 -2.6618 
79 2 -7.30836 -9.49476 -1.75748 
77 2 -4.5305 -13.0193 -2.19877 
52 2 -0.554508 -13.3274 -3.78209 
76 2 -4.1326 -11.2294 -0.557367 
88 2 -2.53045 -9.42456 -0.701684 
84 2 -1.79086 -11.8053 -0.218365 
98 1 -2.23084 -11.3946 -2.91934 
101 1 0.0712606 -9.40107 -1.60593 
109 2 -2.97738 -9.17027 -9.87976 
90 2 -8.62754 -9.25008 -5.99556 
144 1 -9.91613 -9.01154 -3.0049 
78 1 -4.4478 -13.4793 0.681024 
6 2 -1.65571 -13.5428 4.71616 
12 2 -10.96 -9.72718 0.790375 
515 2 -0.176121 -10.1475 5.65921 
1 1 -7.35584 -11.1291 4.41188 
3 2 -5.00735 -10.0051 3.64696 
63 1 -8.53021 -11.2788 1.34963 
2 2 -5.94617 -11.4551 1.90445 
17 2 -7.01359 -9.24679 2.48733 
80 1 -5.6503 -9.07895 0.262983 
87 2 -1.21956 -11.403 3.67478 
5 1 -4.05668 -12.3261 3.98367 
85 1 -2.88974 -10.2635 1.74345 
511 2 -0.654524 -9.09687 3.20519 
83 1 -1.99287 -13.4551 1.91997 
18 2 -9.16551 -9.43637 5.91049 
8 1 -6.94526 -9.10012 7.70687 
4 2 -5.01923 -10.8128 5.97475 
447 2 -0.139127 -11.0788 8.14596 
7 1 -2.79771 -9.17744 4.84723 
445 2 -2.30964 -11.4575 6.34841 
455 2 -2.68015 -10.543 8.78648 
448 2 -1.55432 -9.16173 7.32672 
157 2 -9.29831 -5.25994 -9.80166 
107 2 -4.90024 -7.84541 -10.275 
182 1 -6.6127 -6.01384 -9.01281 
108 2 -5.01909 -5.81468 -11.6872 
179 2 -7.25197 -4.64768 -11.2332 
111 1 -2.58832 -7.35236 -11.8052 
786 2 -0.468409 6.9664 -1.70115 
106 1 -3.58245 -5.58148 -9.34939 
127 2 -0.532519 -5.85894 -10.8175 
368 2 -3.2283 8.72414 -4.21474 
180 2 -9.29168 -0.917083 -10.9923 
264 2 -10.4859 -2.41432 -9.2904 
184 2 -5.1081 -3.62675 -10.6253 
188 2 -6.82601 -1.56646 -11.803 
185 2 -5.2266 -1.37862 -9.78941 
183 1 -7.77335 -2.93784 -9.36859 
204 2 -4.18017 -1.65697 -11.8964 
141 1 -2.69342 -4.26511 -12.1518 
189 2 -3.15053 -2.72441 -9.69394 
133 2 -1.2401 -3.95045 -9.58256 
205 2 -1.87901 -1.67826 -12.1399 
265 2 -10.3642 0.236635 -9.05658 
269 1 -9.04728 2.82123 -10.0249 
288 2 -7.57815 0.923268 -11.9065 
206 2 -5.20073 0.567967 -11.6136 
291 2 -5.6272 2.78201 -12.683 
292 2 -6.37019 2.30639 -10.4465 
267 1 -7.42425 0.00423847 -9.18419 
293 1 -3.4496 2.79956 -11.2834 
203 1 -2.97277 0.605932 -13.3866 
207 1 -2.74749 -0.0544989 -10.1432 
202 2 -0.834322 1.0762 -11.7721 
296 2 -1.78885 2.46271 -9.42209 
404 2 -1.11355 3.18583 -12.9521 
271 2 -4.67551 1.40771 -8.96503 
208 2 -0.301725 0.746557 -9.27215 
355 2 -8.9732 5.39137 -10.1877 
290 1 -6.31125 5.25223 -10.9711 
357 1 -4.05529 7.3629 -10.7258 
289 2 -3.92778 5.15334 -12.3038 
424 2 -1.23738 5.12964 -11.5679 
427 2 -0.0251943 7.30895 -12.4542 
425 2 -1.44508 7.10843 -10.1503 
299 2 -3.21782 4.9758 -9.81436 
422 2 -2.34461 7.28107 -12.6544 
94 2 -10.7104 -7.95774 -5.67747 
159 1 -9.20291 -7.09119 -7.66462 
156 2 -10.999 -5.4614 -5.98386 
92 2 -7.03613 -8.8557 -8.19187 
337 1 -6.04587 3.67712 0.00605605 
162 2 -6.73023 -7.24462 -6.34705 
181 2 -4.97504 -5.4953 -6.68454 
158 1 -8.73583 -6.52909 -4.75685 
96 1 -4.7969 -7.48114 -4.51191 
167 2 -6.35653 -5.20694 -4.43211 
110 1 -4.12678 -8.02818 -7.63201 
115 1 -1.19402 -6.91629 -8.44522 
99 1 -1.48128 -8.7482 -5.9467 
114 2 -2.66424 -6.21739 -6.1861 
118 2 -0.348046 -5.68484 -5.94461 
160 2 -9.99683 -4.25411 -7.78379 
242 1 -12.2471 -2.93712 -7.11387 
248 1 -9.47063 -1.29393 -7.00804 
244 2 -11.4466 -1.16881 -5.32177 
246 2 -12.0954 0.0311045 -7.36815 
163 1 -9.94309 -3.4031 -4.67482 
221 2 -12.712 -4.10597 -4.70101 
161 1 -7.61738 -4.35469 -6.62653 
190 2 -5.2075 -3.06843 -5.91921 
186 2 -5.37123 -3.44401 -8.22971 
187 2 -6.60468 -1.59523 -7.30435 
276 2 -5.15801 -0.811145 -4.78969 
250 2 -7.56904 -2.06222 -5.00379 
193 1 -3.87956 -0.82776 -7.34755 
169 2 -3.94019 -4.71236 -4.64063 
192 1 -2.74054 -3.73472 -7.12738 
196 2 -1.37183 -3.73439 -4.78213 
191 2 -3.25234 -2.24808 -4.74 
210 2 -1.31369 -1.43359 -6.03459 
209 2 -1.16771 -1.51832 -8.38456 
266 2 -11.2321 2.63113 -8.13032 
249 1 -10.5617 1.64288 -5.56103 
338 2 -11.9453 3.88806 -6.106 
268 2 -9.09595 1.58995 -7.71788 
270 2 -6.66768 2.21774 -7.98347 
279 2 -4.54319 1.73199 -6.45479 
272 1 -7.33444 0.66387 -5.93923 
273 2 -7.94883 3.37778 -6.14304 
280 2 -5.468 4.03508 -6.57919 
294 2 -5.06978 3.84322 -9.12315 
297 2 -1.70028 1.08796 -7.32091 
302 2 -1.14751 2.88769 -5.47403 
298 1 -2.89137 3.59661 -7.42477 
275 1 -2.62203 0.649093 -4.75627 
277 2 -3.58213 3.43624 -4.7122 
339 1 -9.90761 4.92572 -7.49182 
340 1 -9.54781 7.59115 -5.55306 
325 2 -11.6296 6.04077 -5.18937 
356 1 -8.0496 7.25102 -8.79962 
342 2 -7.36445 4.5856 -8.47362 
360 1 -5.23937 6.39133 -7.87246 
345 2 -7.50203 5.8417 -6.27661 
305 1 -0.381647 5.54055 -6.12756 
300 2 -2.39971 6.61101 -8.01606 
295 2 -0.879375 4.90638 -9.00482 
369 2 -1.68 8.40172 -6.19568 
365 1 -3.26312 5.97684 -5.33073 
361 2 -4.10305 8.51578 -6.724 
142 1 -11.6975 -6.37972 -3.57458 
145 2 -9.518 -6.63953 -2.08748 
143 1 -11.5992 -7.19298 -0.35544 
220 2 -12.5729 -4.67021 -1.56898 
286 1 -1.34893 4.38556 -3.08571 
89 2 -7.2492 -8.74187 -4.02644 
149 1 -6.80075 -6.82883 -1.93638 
166 2 -4.70622 -5.22731 -2.52602 
287 2 -0.888734 4.87102 -0.353663 
97 2 -2.3356 -8.76367 -3.21293 
171 1 -1.88149 -6.16015 -3.40041 
104 2 -1.64576 -7.197 -0.950534 
170 2 -4.04879 -7.52884 -1.6922 
173 1 -3.21896 -4.93752 -0.213594 
226 2 -13.9092 -0.498608 -1.63343 
223 2 -13.1262 -2.44852 -0.213833 
230 2 -10.8751 -2.9928 -0.463554 
225 2 -10.3542 -4.32102 -2.29133 
222 1 -12.0776 -2.07274 -2.85866 
247 1 -9.50231 -0.311024 -3.68923 
224 1 -11.1459 -0.281412 -0.895638 
251 1 -8.64584 -2.24054 -1.78878 
165 2 -8.06702 -4.59551 -2.82546 
168 1 -6.02693 -2.87343 -3.05507 
174 2 -4.44108 -2.55529 -0.988565 
253 2 -6.70039 -0.180029 -2.88564 
252 2 -6.61962 -1.36546 -0.398981 
164 1 -6.3199 -4.09099 -0.141913 
172 2 -2.84659 -3.42942 -2.6945 
176 2 -0.64563 -4.26771 -1.56181 
177 1 -1.89175 -1.96663 -0.492066 
274 2 -3.6873 -1.00727 -2.77229 
197 1 -0.885208 -1.39617 -3.29041 
309 1 -13.2217 1.9946 -0.8096 
324 1 -12.6614 3.78307 -3.56208 
245 2 -12.3573 0.760577 -3.37832 
243 2 -10.5136 2.03269 -2.71808 
328 1 -10.7285 4.02276 -0.899265 
343 1 -9.53832 4.35152 -4.32718 
256 2 -7.99641 2.05402 -3.81379 
259 1 -4.73366 0.442706 -0.674666 
278 2 -5.30246 1.57528 -4.13937 
255 2 -6.13506 2.14149 -2.07771 
327 2 -8.21625 3.62526 -2.03167 
254 1 -8.53497 0.925287 -1.03271 
281 1 -6.23396 4.25493 -3.95267 
263 1 -3.00309 2.95149 0.161913 
282 2 -4.28953 4.38362 -2.08689 
284 2 -0.492729 1.67066 -3.32944 
283 2 -2.06998 0.646957 -1.68182 
285 2 -3.44626 2.27811 -2.58911 
708 2 -0.593341 2.50921 -1.22056 
382 1 -10.3612 8.49104 -2.8706 
330 2 -11.1322 5.83583 -2.76848 
323 2 -13.2406 5.07706 -1.41528 
331 2 -11.5958 6.98172 -0.852405 
347 1 -5.82208 7.35305 -4.65569 
350 2 -6.03734 6.25112 -2.08228 
346 2 -8.08911 6.63798 -3.52317 
348 2 -7.76518 8.26822 -1.61233 
329 1 -8.63808 5.98875 -0.922522 
367 2 -1.17024 7.53802 -3.97863 
351 1 -3.24621 6.75724 -2.23495 
341 1 -7.08765 8.9528 -6.60364 
359 2 -5.74171 8.73874 -9.01613 
112 1 -0.264368 -8.80373 -11 
377 2 -9.8751 8.69863 -0.0715042 
13 1 -12.5547 -4.74031 1.21967 
14 2 -10.2295 -6.36543 2.06108 
11 2 -12.0028 -7.8785 2.52454 
28 2 -11.6877 -5.72013 3.97684 
228 1 -9.33593 -5.10346 0.0525215 
148 2 -5.26786 -6.39865 0.289494 
147 1 -7.50788 -6.70942 1.934 
152 1 -4.65656 -7.53332 2.88236 
19 1 -8.95706 -5.98117 4.50306 
20 2 -6.22841 -5.64985 4.28693 
151 1 -1.78967 -6.57309 3.11882 
154 2 -3.11684 -7.38685 0.800473 
100 2 -0.878256 -8.49518 0.911043 
150 1 -4.29606 -4.56599 2.60047 
178 1 -0.139882 -5.78046 0.768294 
32 2 -10.2475 -3.96192 2.39824 
227 1 -11.5793 -1.48609 1.94097 
29 2 -12.7959 -3.41998 3.66981 
310 2 -13.4523 -0.0345733 0.94398 
229 1 -8.96882 -1.57371 3.79966 
233 2 -8.97315 -2.24426 0.803586 
235 1 -7.56824 -3.91262 2.62912 
237 2 -7.04069 -1.27575 1.94939 
238 2 -5.82555 -2.34205 3.8965 
258 1 -4.4247 -1.70258 1.67707 
175 2 -1.88504 -3.79169 1.66325 
236 2 -3.29168 -2.40007 4.1467 
608 2 -1.47768 -1.41881 2.24031 
603 1 -0.704254 -3.53073 3.95689 
311 2 -14.1017 2.41282 1.88412 
231 2 -9.19589 0.0795717 1.42081 
41 2 -13.0783 0.707804 3.22485 
315 1 -11.4151 1.83892 1.34693 
313 2 -10.3628 4.29944 2.04349 
234 2 -10.7282 0.563778 4.06597 
312 1 -12.0065 3.37308 4.22184 
239 2 -6.06495 0.0492454 3.92976 
257 2 -6.92959 1.08295 1.09009 
453 1 -5.07392 -8.88911 10.0256 
332 2 -8.7385 2.91901 0.754857 
262 2 -6.65865 2.96883 2.6216 
232 1 -8.97903 2.27775 3.33053 
260 2 -4.74431 1.56182 1.80679 
686 2 -3.29105 0.288328 3.29875 
261 2 -2.53308 0.494182 0.937874 
691 2 -0.947028 1.0941 2.73462 
713 2 -0.501006 3.05508 1.28667 
689 2 -2.56319 2.95702 2.85047 
688 1 -0.333493 4.15496 3.8832 
314 1 -12.8661 4.91442 1.25737 
21 2 -4.23119 -8.73442 7.10049 
326 2 -10.2462 6.6102 1.3585 
373 2 -12.2231 7.91735 1.27533 
374 2 -11.3461 6.46107 3.45599 
320 2 -8.79347 7.33567 3.65361 
335 1 -4.62272 4.7093 2.48605 
333 1 -8.01235 5.30723 1.93964 
334 1 -5.82427 6.9477 0.389767 
378 2 -8.25064 7.82213 1.34808 
336 1 -6.00606 7.29479 3.44157 
773 2 -1.87297 5.24821 1.87391 
349 2 -3.61661 5.533 0.0916652 
788 2 -1.6619 7.27591 0.496437 
353 2 -3.6126 8.50193 -0.0385525 
771 2 -3.41533 7.2301 2.15884 
789 1 -0.573005 7.52749 3.29194 
15 2 -10.9216 -7.91419 5.11381 
25 2 -11.0418 -5.92443 6.50753 
38 2 -9.18577 -4.90379 7.52167 
10 2 -8.97884 -7.37307 7.18964 
22 1 -6.84013 -8.20095 5.13066 
23 2 -7.11136 -5.83605 6.57629 
24 1 -5.0237 -6.50338 8.17014 
587 1 -0.502266 -6.50695 8.5115 
153 2 -4.39964 -6.72672 5.36741 
583 2 -2.85815 -4.92004 5.05398 
457 2 -2.80908 -8.04578 8.97732 
585 2 -2.44751 -6.9826 6.58156 
589 2 -2.86958 -4.9471 7.8761 
584 2 -0.821151 -4.93804 6.24798 
27 2 -11.3035 -4.20096 8.29136 
31 1 -10.7765 -3.46263 5.32494 
33 2 -11.9941 -1.68794 7.17597 
30 2 -12.1821 -1.25084 4.69501 
36 2 -10.0561 -0.429425 6.23282 
39 1 -9.51213 -2.10979 8.15487 
471 1 -6.89014 -3.66641 8.50204 
37 2 -8.06896 -3.58167 5.71607 
35 1 -6.9534 -1.47565 6.48254 
155 1 -5.04434 -3.83758 6.10687 
687 2 -1.46056 -0.808959 4.57538 
470 2 -4.49129 -1.98343 8.21565 
588 1 -2.14342 -2.49116 6.70383 
668 2 -2.53297 -0.342741 8.34558 
667 1 -4.01755 -0.374341 5.91099 
763 2 -3.84951 5.45277 12.4187 
42 1 -12.4762 1.06215 6.19486 
318 2 -10.058 2.1167 6.02723 
46 2 -11.2112 3.42067 7.46162 
45 1 -11.191 0.662334 8.71852 
240 2 -8.11607 0.622092 5.19687 
43 1 -8.34597 1.09389 7.95706 
241 2 -6.01911 1.12209 6.46518 
321 2 -7.29206 2.84262 5.47592 
319 1 -8.46383 4.24272 7.64415 
753 2 -5.7496 3.02606 7.92957 
774 2 -1.80936 7.80821 9.18317 
670 2 -1.06032 0.33524 6.53357 
669 1 -3.1977 2.35812 7.53399 
690 2 -1.86764 1.84555 4.90865 
671 1 -4.62803 2.6147 4.57418 
769 2 -2.47764 3.98628 5.63865 
677 2 -0.505561 1.23745 8.76435 
316 1 -9.4968 4.79807 4.80274 
40 2 -12.048 5.62342 5.77463 
375 2 -10.2763 7.45269 5.50794 
376 2 -9.14035 8.63814 7.593 
322 1 -10.2641 6.09881 7.9156 
317 2 -6.64404 4.81421 4.30612 
755 1 -4.89598 5.08351 6.39938 
752 1 -7.56359 6.8038 6.22102 
770 2 -5.03489 7.75612 5.90281 
821 2 -6.65186 8.96251 7.48735 
758 2 -2.42601 5.47042 7.71162 
772 1 -2.97106 6.16584 4.54251 
826 1 -2.19219 8.1706 6.61812 
775 2 -0.579746 5.91006 6.00242 
26 2 -9.4538 -4.38995 9.98895 
9 1 -7.7805 -6.58866 9.52967 
468 2 -6.72776 -4.4031 11.1748 
456 2 -5.38056 -6.21092 10.9602 
454 2 -2.30773 -8.71621 11.2588 
463 2 -1.23791 -4.68975 12.6143 
458 1 -2.64707 -6.11296 10.7327 
467 2 -6.35388 -2.65617 12.8791 
34 1 -8.4561 -2.33437 11.2256 
469 2 -7.45293 -1.05939 9.23421 
483 1 -6.62233 0.0581029 11.8411 
473 2 -5.52397 -2.16998 10.5354 
460 2 -4.45237 -4.14994 9.49001 
476 2 -4.3868 -1.23769 13.035 
472 1 -4.02479 -3.80393 12.1437 
672 2 -1.04427 -0.548478 10.5589 
477 1 -1.33976 -1.92051 12.9188 
459 1 -2.08595 -3.1103 9.81493 
474 2 -3.44982 -1.02363 10.7314 
44 2 -9.73981 2.93794 9.37792 
47 2 -8.94606 0.540964 10.4877 
666 1 -5.29462 0.549993 8.97245 
485 1 -7.14196 2.85264 10.3199 
486 2 -5.44718 3.73369 12.235 
479 2 -2.48699 0.531567 12.4018 
475 2 -4.56684 1.43818 11.5708 
673 2 -2.69894 1.3805 10.1052 
488 1 -2.27368 3.28349 12.2167 
756 1 -4.10642 4.07042 9.78211 
765 2 -1.42113 3.39092 9.50524 
757 1 -4.36614 7.40725 8.68464 
484 2 -8.45322 5.15382 10.111 
754 2 -6.36835 5.34377 8.57637 
487 1 -6.11437 6.23793 11.1389 
820 2 -7.72934 7.12102 8.91382 
766 2 -0.296778 5.45566 8.72021 
764 1 -1.14257 6.14355 12.9522 
761 2 -2.09042 5.76475 10.3613 
762 2 -3.35686 7.4689 11.3293 
146 1 -8.80708 -8.34552 0.103436 
16 1 -9.54977 -8.97909 3.11387 
694 1 -0.148216 3.19964 6.8525 
676 2 -0.0529395 -1.04735 8.33888 
449 2 -0.490634 -9.08746 9.56735 
478 2 -0.291566 0.212046 13.9501 
438 2 -1.60905 9.23036 -11.3744 
440 2 -0.302317 10.4877 -9.47063 
384 2 -9.58467 10.2363 -4.95371 
363 1 -5.34496 10.9901 -7.49366 
390 2 -7.26102 11.2328 -5.2374 
388 1 -4.51278 11.3708 -0.317883 
358 2 -5.13655 10.0623 -4.80183 
362 2 -5.29436 12.7059 -5.02272 
389 2 -4.56148 13.6082 -1.87513 
364 1 -2.75905 9.47496 -8.85284 
397 2 -2.67524 14.2351 -0.203114 
371 1 -2.95757 11.1532 -6.13224 
391 1 -2.07528 14.0838 -2.85173 
385 2 -8.98108 10.575 -1.85639 
383 1 -6.54133 11.5231 -2.70764 
344 2 -7.68784 9.21599 -3.74523 
366 2 -0.819034 12.5524 -4.77781 
370 2 -0.80285 9.9438 -4.26554 
372 1 -3.45332 11.5403 -3.21546 
810 2 -0.457706 11.7201 -2.57188 
354 1 -1.82861 9.47865 -1.71247 
835 2 -2.07003 12.0807 -0.705931 
352 1 -5.12803 8.95605 -2.16313 
379 2 -9.84272 11.0772 0.487563 
380 1 -10.3234 9.23482 2.65342 
822 2 -3.18429 9.88821 9.14949 
394 1 -7.53904 12.8159 -0.0813079 
387 1 -7.14401 9.97918 0.15743 
392 2 -8.47765 11.5635 2.2616 
396 1 -5.67301 11.7698 2.70191 
386 2 -5.04151 9.28318 1.82789 
381 2 -7.45419 9.55213 2.82009 
832 2 -0.77504 12.8015 1.1689 
792 1 -2.1294 10.0777 1.4643 
830 2 -3.34587 12.7586 1.67619 
831 1 -1.75052 12.3002 3.94811 
395 2 -5.16114 13.9258 0.549698 
828 1 -0.447815 10.4419 8.47585 
824 2 -5.97095 9.72954 4.9206 
393 1 -8.60667 9.75669 5.25903 
838 2 -4.22266 11.7622 5.01911 
839 2 -2.10404 10.8764 6.29873 
787 2 -0.765292 9.76128 4.50596 
825 2 -4.45094 9.79756 7.03292 
823 1 -3.40941 9.293 4.05411 
827 1 -1.40459 9.17941 11.3623 
64 1 1.46004 -10.5816 -9.21832 
70 1 4.09853 -9.32385 -9.18692 
69 2 2.37244 -8.79993 -11.5057 
50 2 1.65805 -12.6327 -5.83562 
68 1 3.91905 -11.7092 -4.47121 
65 2 2.85039 -10.7553 -6.80282 
489 2 6.79908 -11.1482 -2.73588 
113 2 -0.00209115 -11.1693 -6.90964 
59 2 0.000258965 -12.199 -1.65866 
67 2 5.49079 -11.0514 -6.88085 
51 2 6.41143 -12.3375 -4.72103 
502 1 7.08183 -9.65781 -4.96872 
48 2 0.541392 -14.5166 -1.97084 
57 1 0.377334 -10.5844 -4.26648 
49 2 1.79485 -12.9584 -3.33874 
60 2 2.58602 -10.1583 -2.64012 
62 1 2.53016 -12.1515 -0.906407 
497 1 4.95974 -9.80773 -1.11458 
527 2 2.13423 -9.36778 -0.201476 
490 2 8.75629 -11.356 -4.12668 
496 2 7.02204 -11.4959 -0.299101 
66 2 4.73343 -9.24169 -3.74064 
504 1 9.16379 -10.0536 -1.13179 
61 2 5.04447 -12.5996 -2.08503 
71 1 7.31389 -9.15397 -8.10478 
501 2 9.69928 -9.09825 -3.69282 
54 2 0.29481 -13.7309 0.518731 
512 2 0.680711 -13.2087 3.34253 
514 1 1.87155 -10.8098 3.83276 
491 2 2.60004 -12.9399 1.82598 
531 2 3.21328 -10.6715 1.2952 
86 1 0.355612 -11.0708 1.28568 
533 2 4.00559 -9.21312 3.34986 
494 2 4.59525 -11.8993 3.19131 
498 2 5.72453 -10.2354 1.66564 
535 2 6.42233 -10.0382 4.10153 
493 2 6.79318 -12.3401 2.07032 
499 1 8.39536 -9.99305 2.05927 
495 2 4.77808 -12.3409 0.567104 
505 2 11.1548 -9.72821 0.925707 
492 2 2.99545 -13.0634 4.66104 
446 1 0.423384 -12.8053 5.96233 
518 2 2.05725 -10.8589 6.58226 
450 2 1.89222 -10.1447 9.55768 
519 2 6.32951 -9.48317 6.86251 
520 2 4.27681 -10.3995 5.47263 
500 2 10.5912 -8.92807 3.24246 
409 2 2.91999 -2.18427 -13.8562 
129 2 1.48773 -7.25242 -9.65886 
131 1 4.07404 -6.79625 -10.8523 
126 2 1.3227 -6.66797 -12.2294 
130 2 2.20637 -4.81719 -10.3925 
398 1 3.61152 -4.735 -12.8651 
128 2 6.36756 -8.20608 -10.2838 
72 2 8.36133 -7.01498 -9.62866 
400 2 6.50941 -5.99693 -11.197 
840 2 8.7357 -4.69617 -9.20198 
211 2 0.00259452 -1.22081 -10.6622 
213 2 0.930543 -2.96152 -9.21858 
411 1 2.78301 -2.05312 -11.1733 
132 1 0.513364 -3.66681 -12.2284 
406 2 2.74232 0.2377 -13.188 
139 2 4.74485 -4.12963 -10.4036 
401 2 5.18026 -1.81616 -9.77402 
399 2 5.31591 -2.6138 -12.2699 
402 2 7.05535 -3.59783 -10.5719 
403 2 6.99072 -1.08345 -11.3025 
843 1 9.2268 -1.87391 -9.29902 
412 2 4.76616 -0.317927 -12.0278 
413 2 4.14865 0.248574 -9.74772 
408 2 1.69782 0.550597 -11.0441 
410 1 3.77446 2.36287 -11.7175 
407 2 1.28826 2.24416 -13.185 
423 1 0.622004 3.24834 -10.717 
418 2 2.72151 2.28149 -9.01345 
419 2 8.72391 0.536659 -10.6815 
414 2 6.35927 1.49062 -11.0057 
848 1 8.17995 2.94818 -9.5302 
417 2 6.10197 4.08549 -11.1136 
853 2 10.7061 1.78175 -9.57874 
421 2 4.06464 5.04557 -12.8056 
431 1 3.45943 4.91237 -10.0307 
426 1 1.32116 4.97962 -12.9157 
436 1 2.85541 7.42126 -12.1812 
428 2 0.865446 6.04616 -10.3023 
430 2 2.6471 7.38837 -9.48711 
429 2 0.812341 8.75588 -10.7104 
420 2 7.21755 5.43846 -9.64934 
437 1 5.71852 6.67992 -11.4477 
847 2 5.32649 6.57956 -8.76793 
854 2 9.34702 5.62019 -8.68309 
134 2 3.51166 -6.55358 -8.14667 
117 1 1.26771 -8.60492 -7.14879 
120 1 2.52858 -6.2464 -5.72965 
195 2 1.21491 -5.6184 -7.95125 
137 1 6.27526 -5.98645 -8.52385 
123 1 4.68307 -8.44824 -6.487 
135 2 7.11594 -7.2438 -6.30418 
565 2 8.52267 -7.09711 -4.38699 
138 2 5.09829 -5.45513 -6.26516 
566 2 7.4552 -4.95622 -5.49541 
508 2 9.41456 -8.96961 -6.24042 
510 1 9.51965 -6.20395 -7.02375 
509 1 11.335 -7.04302 -4.38777 
125 1 3.539 -3.82912 -8.08196 
201 2 2.81264 -3.65718 -5.44573 
216 2 2.6775 -1.47002 -6.19391 
194 1 0.48008 -3.15258 -6.63873 
212 1 1.81902 -0.561872 -8.37538 
215 2 4.76228 -1.46903 -7.52361 
140 1 5.19204 -2.87489 -5.22486 
136 1 6.7774 -3.11242 -7.76392 
569 2 7.73349 -2.4539 -4.62712 
841 2 8.69122 -1.07618 -6.58092 
645 2 6.32598 -0.555302 -5.93385 
842 2 10.9243 -3.91341 -8.41187 
567 2 9.25607 -3.38612 -6.7104 
570 1 11.8794 -4.38784 -6.09035 
845 2 13.006 -1.94663 -5.26601 
573 1 10.3585 -1.81798 -4.67348 
844 1 11.5089 -1.38874 -7.62549 
217 1 4.04478 0.943916 -6.73221 
303 2 2.79076 3.35333 -6.66091 
214 1 0.663405 0.622445 -5.66828 
301 1 0.384387 2.88463 -7.68933 
304 2 0.999665 3.53096 -4.73159 
219 2 2.93222 1.7122 -4.47737 
416 1 6.777 0.0422089 -8.6435 
415 1 5.37725 2.87614 -8.84876 
849 1 7.65223 1.88075 -6.47409 
646 2 5.16912 3.36259 -5.80381 
648 2 8.23886 -0.0818934 -4.21252 
851 2 9.37223 0.626406 -8.125 
850 2 10.3251 0.913358 -5.57225 
846 2 12.4405 0.258116 -4.80945 
857 2 12.0565 1.14472 -7.4545 
855 1 12.6836 3.02323 -5.42314 
852 1 10.3648 3.54854 -7.23983 
432 2 4.32603 5.068 -7.27721 
306 2 2.43277 5.63051 -5.74838 
435 2 1.6483 5.36762 -8.09792 
867 1 3.55422 7.72477 -6.89724 
308 1 1.14894 8.24751 -5.05246 
434 1 0.167147 7.82736 -8.04195 
864 1 7.24953 4.93648 -7.039 
868 2 6.25589 7.33119 -6.78215 
863 2 5.15249 6.04912 -5.19752 
877 1 7.76444 7.95083 -8.74873 
860 2 9.09572 4.4862 -5.02487 
866 1 5.31089 8.9499 -4.72063 
870 2 9.37993 6.80195 -6.54231 
856 2 11.3199 5.57168 -5.17546 
872 2 10.3684 7.87391 -4.6891 
102 2 0.514238 -7.58107 -4.26918 
124 2 3.88273 -4.94402 -3.68243 
122 1 3.03673 -7.48429 -2.57318 
105 2 0.487816 -6.4865 -1.91982 
548 2 4.215 -5.03484 -1.32755 
119 1 5.84298 -6.7621 -3.90276 
503 2 7.10827 -8.80927 -2.41349 
551 1 8.59226 -6.54398 -1.78324 
550 2 5.75803 -6.9807 -1.07408 
405 1 0.329852 -0.660965 -13.3946 
568 1 9.42625 -4.65339 -3.96152 
529 2 2.33963 -6.81289 -0.13144 
572 2 11.3575 -5.69783 -2.23109 
506 1 11.5855 -7.97721 -1.06943 
507 2 13.2307 -6.19623 -0.309939 
625 2 1.90381 -4.44086 -0.894548 
198 2 1.66838 -1.76208 -4.15026 
121 1 1.06857 -4.43591 -3.66792 
626 1 3.59301 -2.40756 -2.53406 
199 2 0.692843 -2.16874 -1.5142 
627 2 2.57116 -1.30572 -0.28553 
218 2 3.90983 -0.460076 -4.2003 
553 1 6.60685 -4.19642 -2.71284 
557 2 8.59549 -3.90631 -0.644628 
555 2 6.26754 -2.52008 -0.83177 
571 1 8.62511 -1.57502 -2.03334 
644 2 6.08729 -1.3237 -2.93813 
865 1 4.8972 8.9803 -9.94971 
575 2 12.6157 -3.83542 -3.53934 
576 2 10.6515 -3.484 -2.00878 
577 2 12.8808 -3.70487 -1.15385 
103 2 2.64302 -9.16966 -4.85712 
578 1 12.5316 -1.19663 -2.43015 
876 2 12.1365 6.05974 -0.444404 
652 2 3.51587 2.19671 -1.97825 
200 1 1.52851 0.352365 -2.43929 
709 2 1.508 3.33541 -2.35378 
735 1 3.83616 4.24864 -3.67029 
631 2 2.67396 1.03914 0.0210273 
733 1 3.75366 4.84389 -0.623851 
647 2 8.5946 2.30253 -4.03602 
649 1 5.81305 1.46548 -3.81402 
629 1 5.08674 -0.0168215 -0.800402 
653 2 7.69394 0.953018 -1.807 
650 2 5.77824 3.04884 -1.49477 
658 1 8.38158 3.7816 -1.72119 
651 2 6.80702 4.0738 -4.20072 
873 2 12.0817 7.54025 -2.82044 
859 2 10.7804 3.39394 -3.5786 
657 1 10.4553 0.898188 -2.54994 
861 1 13.2567 1.95412 -2.57459 
655 2 11.6885 0.420105 -0.0326026 
659 1 11.0699 3.33529 -0.546645 
862 2 13.7416 3.69607 -0.481594 
858 1 12.9226 4.92806 -2.98642 
307 2 0.993166 5.89161 -3.67766 
716 2 1.45743 5.5411 -1.35059 
734 1 3.4048 7.11639 -3.11747 
811 2 2.85759 7.45379 -0.229849 
741 2 5.1383 7.1688 -0.549404 
744 2 7.84407 6.68341 -1.45443 
871 1 7.73772 6.74376 -4.36308 
736 2 5.80787 5.63907 -2.27913 
738 2 6.34065 8.14842 -2.49245 
874 2 8.69189 8.7905 -3.05777 
875 1 10.2764 8.14247 -0.74687 
742 1 10.1684 5.87944 -2.64686 
547 2 7.13862 -8.67764 0.141086 
715 2 1.56468 3.27497 0.0621406 
656 2 9.38275 0.992415 0.0503088 
605 2 0.901039 -5.60532 3.5238 
530 1 1.65303 -8.1446 2.32276 
534 1 3.78876 -6.26359 3.64637 
528 2 2.19791 -5.15406 1.69204 
532 2 4.17838 -8.49739 1.07671 
791 2 0.240313 8.62993 0.617251 
541 2 5.80804 -4.83388 2.43946 
539 1 6.35593 -7.61164 2.56456 
552 2 4.34396 -6.1041 0.867299 
558 2 7.83997 -6.22661 0.784501 
562 2 10.9652 -5.12766 3.01429 
554 2 9.04463 -6.79188 2.91308 
560 1 12.2165 -7.27038 2.09081 
536 2 9.61845 -7.8905 0.693962 
521 1 3.79324 -8.81522 7.72252 
559 1 10.6186 -5.34398 0.322594 
607 1 1.08306 -0.880829 3.65773 
628 1 3.28235 -0.730308 2.14076 
606 2 2.74667 -3.28277 3.20413 
604 1 0.89669 -2.78743 1.20552 
630 1 4.22073 -3.34888 0.688497 
636 1 7.84038 -1.25317 0.93578 
614 1 5.75613 -2.08449 3.16396 
556 1 8.45267 -4.08332 2.19302 
639 2 8.68668 -1.49768 3.48049 
561 2 11.0665 -1.43744 4.6784 
564 1 12.8146 -3.73857 4.66402 
581 1 13.0919 -1.2256 2.65721 
580 2 10.792 -2.84953 2.76798 
563 1 13.111 -4.07948 1.52524 
633 2 10.4082 -0.304884 2.3443 
711 2 1.50756 1.56167 2.16467 
714 2 2.12409 3.7488 2.43322 
513 2 1.03974 -8.94514 7.57207 
696 1 3.57253 1.47834 4.29433 
718 1 4.31064 2.63925 1.1864 
720 2 4.25065 4.08603 3.96215 
710 1 0.0808808 0.196427 0.184642 
721 1 6.64362 3.14954 2.97632 
634 2 5.81999 0.578464 1.92388 
637 2 8.27743 1.04567 2.41267 
635 2 6.89702 2.07405 0.318092 
654 2 8.94099 3.34554 1.07919 
723 1 9.75273 2.94817 3.7562 
643 2 12.7805 3.37265 4.08464 
662 2 11.7701 0.87248 4.23602 
661 2 11.6157 1.95617 1.90979 
660 2 13.6868 3.28759 1.81977 
663 2 13.7711 1.25169 3.27625 
664 1 14.156 1.14687 0.368375 
712 1 0.97502 5.97156 1.30964 
719 1 4.13705 6.26543 2.04539 
793 2 2.21744 8.27804 2.165 
702 2 9.05461 5.54341 9.69411 
814 2 4.80736 8.89446 1.25016 
722 2 6.12883 5.56512 3.96658 
740 1 6.70967 5.01252 0.542531 
739 2 6.53767 7.29616 1.94309 
750 2 8.8235 7.636 1.60405 
746 2 8.51905 5.41014 2.55023 
795 1 4.62951 8.33328 4.00614 
730 1 7.75353 7.77895 4.51626 
732 2 10.1066 6.45431 3.94788 
665 1 11.5089 4.91811 2.01507 
749 2 11.3904 7.52648 1.63969 
582 1 0.325428 -7.38649 5.27668 
516 2 2.79348 -8.25947 5.24524 
596 2 2.06232 -6.5646 7.24472 
591 1 2.38363 -4.72658 9.14268 
540 1 7.37013 -5.73085 4.76604 
537 1 8.48711 -8.67921 5.03406 
538 2 5.37283 -7.87949 5.19935 
522 1 4.57112 -5.77555 6.80515 
523 2 6.83098 -7.13215 7.19531 
524 2 6.28339 -5.95293 9.17332 
526 2 8.54997 -6.48379 9.22284 
544 2 8.76532 -8.53267 7.82864 
543 1 11.126 -6.91398 4.87129 
542 2 9.19912 -6.18866 6.79644 
545 2 11.7205 -5.12361 6.85443 
594 1 1.88508 -4.24431 5.74981 
590 2 0.154533 -3.53643 7.92534 
610 1 3.4765 -1.52763 5.34025 
592 2 2.09499 -1.98947 7.86746 
586 2 0.466069 -1.86649 6.04585 
597 2 4.04135 -3.29534 7.24465 
611 2 7.37296 -3.13803 4.88936 
609 2 5.00274 -3.91206 5.01739 
615 1 7.11963 -4.00236 7.39264 
612 2 6.02524 -1.73247 6.02345 
613 1 4.68399 -1.10884 8.36012 
618 1 8.80376 -1.54608 6.56361 
546 1 9.9231 -4.02536 5.18905 
620 1 9.83628 -4.08279 8.38009 
621 2 11.393 -2.31118 6.868 
622 2 10.4586 -1.19891 8.89345 
641 1 13.3431 -0.529293 5.87926 
693 1 1.72788 0.714069 6.87185 
692 2 0.758576 1.69027 4.35199 
698 2 2.07088 3.64209 5.1147 
695 2 3.19782 3.25253 7.10423 
619 2 6.78067 0.388928 7.38823 
632 1 6.62271 0.522338 4.58619 
697 2 4.62905 1.16428 6.8131 
703 2 6.25334 2.75919 8.48792 
699 1 5.86638 3.42321 6.00689 
726 1 8.93169 2.42388 6.57243 
617 2 8.88251 0.619958 8.61981 
640 2 9.37513 0.440885 4.62332 
638 2 10.7479 0.315748 6.75112 
624 2 10.9854 1.71442 8.75465 
642 2 11.6898 2.37828 6.19715 
706 2 10.3229 4.12317 8.1616 
728 2 11.1157 4.56078 5.44486 
797 1 1.88353 6.19314 4.29442 
779 1 1.93795 5.60738 7.15702 
776 2 0.462643 8.38691 6.07683 
780 2 2.92158 8.03992 6.0895 
778 2 0.51263 7.73917 8.38135 
717 2 4.29435 5.82839 5.75582 
783 2 3.1376 7.68438 8.4409 
724 2 7.68552 4.59013 7.94659 
704 1 4.68209 5.21225 8.4409 
727 2 8.38108 4.83159 5.11301 
725 2 6.77358 6.13169 6.35847 
800 1 5.46285 8.24944 7.1281 
729 1 9.32124 6.50583 7.0055 
731 2 10.2758 8.48954 5.49673 
462 2 -0.15183 -4.8012 10.4394 
517 2 4.12837 -6.70575 9.4728 
452 2 1.87247 -7.66522 9.56472 
465 2 2.79364 -6.1799 11.6599 
461 1 0.255864 -7.35912 11.7101 
451 1 3.72514 -8.73584 11.2331 
525 1 6.40681 -8.55217 9.47686 
598 2 5.52901 -6.64723 11.44 
601 1 7.4626 -4.30191 10.7951 
466 2 4.39329 -4.36447 11.4649 
464 1 1.37683 -3.87128 12.331 
678 1 2.00139 0.0566203 9.81402 
595 2 0.690412 -2.39345 10.1105 
480 2 1.08479 -0.907484 12.0757 
593 2 3.2237 -2.32573 10.2523 
680 1 3.77808 -1.67913 12.9077 
600 2 5.01879 -4.05605 9.17674 
616 1 7.79546 -1.61642 9.35698 
602 2 6.12974 -3.15624 12.7753 
599 2 5.49571 -2.2498 10.7857 
681 2 4.68036 0.0290964 10.8361 
679 1 7.18947 -0.619276 12.1417 
700 2 4.07708 1.89473 8.93893 
682 2 3.08183 1.97443 11.4118 
674 1 0.0963882 1.81977 11.5766 
675 1 1.65482 3.29139 9.43319 
759 2 0.0806882 4.62791 11.1532 
685 2 2.05789 3.77442 12.3217 
701 2 6.77722 0.833023 9.71583 
683 2 4.79929 0.853096 13.0123 
684 1 5.77776 2.76258 11.2775 
707 1 8.68359 2.83604 9.98859 
623 2 9.23045 0.384538 10.9901 
760 2 0.139444 7.10456 10.7281 
837 2 4.06073 4.75761 11.1228 
768 1 2.1505 6.5398 12.5521 
782 2 2.13889 6.0261 9.90301 
784 1 1.95019 9.08585 10.468 
751 2 7.04493 6.85046 8.71123 
785 1 4.77806 7.3411 10.7197 
705 2 6.71804 5.13642 10.3467 
743 2 9.41362 5.60413 0.0635635 
549 2 6.44971 -4.71874 0.018208 
767 2 0.123177 3.90016 13.5681 
574 1 10.8543 -2.01944 0.217772 
579 2 13.635 -1.61755 -0.0400219 
482 2 1.35791 -1.68614 14.2558 
481 1 2.15989 1.1279 13.636 
439 2 2.71106 10.2282 -11.0792 
836 1 0.296913 13.8179 -0.844786 
433 2 4.22894 11.2495 -8.87558 
443 2 2.37616 9.63219 -8.66137 
441 2 1.77069 11.9598 -8.47388 
444 1 3.32751 10.8675 -6.27538 
879 2 1.65955 13.0006 -5.89574 
869 2 5.63092 9.72661 -7.47961 
878 1 8.12651 9.33011 -5.97063 
881 2 5.90703 11.266 -5.55611 
807 2 2.21858 11.7749 -1.57713 
883 2 3.00516 9.70868 -3.87696 
880 1 3.98598 12.3473 -3.67198 
804 2 1.24089 11.159 -4.21381 
809 1 4.38216 9.88324 -1.2349 
819 2 4.57686 12.5986 -0.947601 
882 2 1.36342 13.462 -3.34282 
884 1 7.00705 10.9192 -2.95083 
817 1 7.15528 12.0448 -0.157477 
812 2 9.26883 10.6467 -1.45327 
806 1 1.02933 9.04801 -1.97811 
805 2 0.32817 11.0347 -0.192728 
442 1 0.140804 10.6543 -6.79101 
737 1 7.25943 9.08222 -0.238486 
808 2 2.42895 9.8544 0.378756 
818 1 2.59897 12.6961 1.03614 
796 2 3.28002 10.3403 2.50817 
790 1 0.618369 10.7682 2.56813 
834 2 0.752091 13.5543 2.93239 
799 2 2.67986 12.3326 3.81006 
829 2 4.03785 10.0533 8.72286 
815 2 4.96954 11.3517 1.15612 
816 1 7.19334 10.0587 2.71003 
813 2 5.12603 11.7017 3.70984 
748 2 9.38038 10.0969 1.09851 
747 2 10.0995 8.93195 3.19848 
798 1 3.89319 10.8407 5.77963 
833 1 0.786323 11.4795 5.76514 
777 2 1.93965 9.7776 7.55872 
794 2 1.95655 9.27027 4.33692 
745 2 8.85624 10.4142 4.83139 
803 2 6.49102 10.1952 5.24102 
801 2 6.18243 11.0027 7.60878 
802 1 8.25621 9.34095 7.24447 
781 2 6.49884 9.08669 9.49793 
