LAMMPS (5 Jun 2019)
##################################################################
##IN.LATTICE	                                                ##
##Script to deposits prequenched clusters at random locations	##
##on substrate. Compute RDFs and voronoi after impaction	##
##################################################################
##Dependencies	: ../step1/*, ../step2/*                        ##
##Influences	: lammpstrj.*, post/*, log.*, *.restart         ##
##################################################################
## ver. : 2019-07-24, Syamal Praneeth Chilakalapudi, INT, KIT	##
##Author Email    :syamalpraneeth@gmail.com			##
##################################################################

#--------------------------------------------------------------------INITIALISE
units           metal
boundary        p p p
atom_style      atomic
atom_modify map array

read_data	data.Substrate
  orthogonal box = (-49.9863 -49.9863 -19.9973) to (49.9863 49.9863 109.997)
  3 by 4 by 5 MPI processor grid
  reading atoms ...
  12500 atoms
  reading velocities ...
  12500 velocities
  read_data CPU = 0.493505 secs
mass		1 63.546
mass		2 91.224
pair_style      eam/alloy
pair_coeff      * * ZrCu.lammps.eam Zr Cu

variable        myT equal 300
variable	top equal bound(all,ymax)
variable	inter equal ${top}+2
variable	inter equal 49.9850757681647+2

region          bottom block INF INF INF INF INF -8 units box
region		interface block INF INF INF INF ${top} ${inter} units box
region		interface block INF INF INF INF 49.9850757681647 ${inter} units box
region		interface block INF INF INF INF 49.9850757681647 51.9850757681647 units box
region		film block INF INF INF INF ${top} INF units box
region		film block INF INF INF INF 49.9850757681647 INF units box

#-----------------------------------------------------------------------THERMO
thermo          1000
thermo_style    custom step pe press pxx pyy pzz lx ly lz vol temp

variable	BoxL  equal  lx
variable	dispX  equal  random(0,${BoxL},475414)
variable	dispX  equal  random(0,99.9725615122585,475414)
variable	dispY  equal  random(0,${BoxL},475414)
variable	dispY  equal  random(0,99.9725615122585,475414)

#----------------------------------------------------------GROUPS
group           bottomLayer region bottom
1261 atoms in group bottomLayer

#---------------------------------------------------------------------DEPOSIT LOOP
shell           mkdir  dump
WARNING: Shell command 'mkdir' failed with error 'File exists' (../input.cpp:1293)
dump		relax all custom 500 data/dump.atom id type x y z

variable a loop 100
label l1

variable	diff equal ($(lx)-v_top)
variable	diff equal (99.972561512258494076-v_top)
if "v_diff<=20" then "change_box all z delta 0 10"
change_box all z delta 0 10
  orthogonal box = (-49.9863 -49.9863 -19.9973) to (49.9863 49.9863 119.997)

group		myG  id <= 0
0 atoms in group myG
read_data	myNanoP.txt add append group myG
  orthogonal box = (-49.9863 -49.9863 -19.9973) to (49.9863 49.9863 119.997)
  3 by 4 by 5 MPI processor grid
  reading atoms ...
  884 atoms
  reading velocities ...
  884 velocities
  read_data CPU = 0.0274761 secs
group		subG subtract all myG
12500 atoms in group subG

variable	dxx   equal  "v_dispX-0.5*v_BoxL"
variable	dyy   equal  "v_dispY-0.5*v_BoxL"
variable	dzz   equal  "v_a*3+50"
print		"${dzz}"
53

displace_atoms myG move ${dxx} ${dyy} ${dzz} units box	#make it uniform
displace_atoms myG move -46.2086513071489 ${dyy} ${dzz} units box	
displace_atoms myG move -46.2086513071489 10.6927909340182 ${dzz} units box	
displace_atoms myG move -46.2086513071489 10.6927909340182 53 units box	
#displace_atoms myG move 0 0  50 units box		#make it uniform
reset_ids
Resetting atom IDs ...
Neighbor list info ...
  update every 1 steps, delay 10 steps, check yes
  max neighbors/atom: 2000, page size: 100000
  master list distance cutoff = 8.5
  ghost atom cutoff = 8.5
  binsize = 4.25, bins = 24 24 33
  1 neighbor lists, perpetual/occasional/extra = 1 0 0
  (1) pair eam/alloy, perpetual
      attributes: half, newton on
      pair build: half/bin/atomonly/newton
      stencil: half/bin/3d/newton
      bin: standard

variable	E equal 50*(1.6e-19)				#units: eV
variable	mass equal (mass(myG))*(1.6605e-27)
variable        cvel equal (-1)*(sqrt(2*${E}/${mass}))/100	#metal units: vel = 1 Angstr/ps = 100 m/s
variable        cvel equal (-1)*(sqrt(2*8e-18/${mass}))/100	
variable        cvel equal (-1)*(sqrt(2*8e-18/1.0826230851e-22))/100	
velocity        myG create 300 74657362 mom yes rot yes
velocity        myG set 0 0 ${cvel} units box
velocity        myG set 0 0 -3.84433609775096 units box

velocity        subG create 300 74657362 mom yes rot yes
set             group bottomLayer vz  0
  1261 settings made for vz
fix             freeze bottomLayer setforce NULL NULL 0.0

#compute myT 	subG temp
#thermo_modify 	temp myT

fix            1 all nve
fix            2 bottomLayer temp/berendsen 200.0 200.0 0.1
run            20000
Per MPI rank memory allocation (min/avg/max) = 0.6336 | 2.664 | 4.818 Mbytes
Step PotEng Press Pxx Pyy Pzz Lx Ly Lz Volume Temp 
       0    -58680.58   -2741.6168    -3345.281   -3089.0667   -1790.5028    99.972562    99.972562    139.99451      1399177    299.84968 
    1000   -58778.627   -405.25529   -1224.8144   -939.48549    948.53399    99.972562    99.972562    139.99451      1399177    341.93499 
    2000   -58783.858   -1961.9418   -2680.1106    -2394.259   -811.45568    99.972562    99.972562    139.99451      1399177     339.2946 
    3000   -58796.237   -891.43363   -1715.8626   -1489.1149    530.67659    99.972562    99.972562    139.99451      1399177    338.61702 
    4000   -58811.159   -1472.4479   -2180.1275   -2134.1843   -103.03186    99.972562    99.972562    139.99451      1399177    343.08972 
    5000    -58807.39    -1382.213   -2048.1447    -1971.165   -127.32947    99.972562    99.972562    139.99451      1399177    337.39274 
    6000   -58818.431   -1155.8254   -1858.1322   -1742.6726     133.3286    99.972562    99.972562    139.99451      1399177    340.62891 
    7000   -58825.309   -1585.1564   -2263.5761   -2126.8495   -365.04365    99.972562    99.972562    139.99451      1399177    339.56985 
    8000   -58854.477   -868.09248   -1642.5697   -1483.9858    522.27807    99.972562    99.972562    139.99451      1399177    353.23567 
    9000   -58851.174   -1189.0996   -1837.4904    -1770.112    40.303633    99.972562    99.972562    139.99451      1399177    345.27612 
   10000   -58861.837   -778.25362   -1405.0798   -1241.5758    311.89473    99.972562    99.972562    139.99451      1399177    345.46709 
   11000   -58873.002   -1271.7304   -1799.0725   -1733.3771   -282.74171    99.972562    99.972562    139.99451      1399177    346.74626 
   12000   -58881.281   -1057.0158   -1617.7401   -1514.0595   -39.247739    99.972562    99.972562    139.99451      1399177    344.03624 
   13000   -58890.219   -1310.8103   -1876.6264   -1747.6244   -308.18008    99.972562    99.972562    139.99451      1399177    342.07644 
   14000   -58896.273   -1116.9232   -1748.4088   -1540.8936    -61.46709    99.972562    99.972562    139.99451      1399177    337.97821 
   15000   -58907.688   -1245.2012   -1936.4408   -1661.9249   -137.23776    99.972562    99.972562    139.99451      1399177    336.48694 
   16000   -58926.049   -1197.0111   -1807.8062   -1686.7122   -96.515024    99.972562    99.972562    139.99451      1399177    338.64917 
   17000   -58925.086   -1132.1184   -1732.9022   -1583.2953   -80.157838    99.972562    99.972562    139.99451      1399177    333.28428 
   18000    -58936.49   -1255.5255   -1797.7982    -1709.033   -259.74536    99.972562    99.972562    139.99451      1399177     332.2313 
   19000   -58945.126   -1025.2109   -1632.5212   -1539.1691    96.057561    99.972562    99.972562    139.99451      1399177    331.66083 
   20000   -58954.352   -1343.1321   -1908.5831   -1809.8564   -310.95668    99.972562    99.972562    139.99451      1399177     330.9044 
Loop time of 330.77 on 60 procs for 20000 steps with 13384 atoms

Performance: 5.224 ns/day, 4.594 hours/ns, 60.465 timesteps/s
60.5% CPU use with 60 MPI tasks x no OpenMP threads

MPI task timing breakdown:
Section |  min time  |  avg time  |  max time  |%varavg| %total
---------------------------------------------------------------
Pair    | 0.0095041  | 73.681     | 198.98     | 892.3 | 22.28
Neigh   | 0.00051999 | 0.13048    | 0.62599    |  64.5 |  0.04
Comm    | 0.35912    | 60.672     | 167.48     | 822.6 | 18.34
Output  | 0.42578    | 0.51329    | 0.60116    |   7.1 |  0.16
Modify  | 7.2626     | 191.2      | 325.8      | 975.2 | 57.80
Other   |            | 4.577      |            |       |  1.38

Nlocal:    223.067 ave 953 max 0 min
Histogram: 36 10 0 1 0 1 0 0 0 12
Nghost:    643.3 ave 2093 max 0 min
Histogram: 36 0 0 0 0 0 7 5 9 3
Neighs:    15092 ave 71183 max 0 min
Histogram: 46 0 1 0 1 0 0 0 0 12

Total # of neighbors = 905523
Ave neighs/atom = 67.6571
Neighbor list builds = 151
Dangerous builds = 0

print		"run finished for a value $a"
run finished for a value 1

#undump	relax
#uncompute myT
unfix	freeze
unfix	1
unfix	2
group	myG	clear
group	subG 	clear
variable dxx	delete
variable dyy	delete
variable dzz  	delete

next a
jump in.CuZr_deposit l1

variable	diff equal ($(lx)-v_top)
variable	diff equal (99.972561512258494076-v_top)
if "v_diff<=20" then "change_box all z delta 0 10"
change_box all z delta 0 10
  orthogonal box = (-49.9863 -49.9863 -19.9973) to (49.9863 49.9863 129.997)

group		myG  id <= 0
0 atoms in group myG
read_data	myNanoP.txt add append group myG
  orthogonal box = (-49.9863 -49.9863 -19.9973) to (49.9863 49.9863 129.997)
  3 by 4 by 5 MPI processor grid
  reading atoms ...
  884 atoms
  reading velocities ...
  884 velocities
  read_data CPU = 0.0278161 secs
group		subG subtract all myG
13384 atoms in group subG

variable	dxx   equal  "v_dispX-0.5*v_BoxL"
variable	dyy   equal  "v_dispY-0.5*v_BoxL"
variable	dzz   equal  "v_a*3+50"
print		"${dzz}"
56

displace_atoms myG move ${dxx} ${dyy} ${dzz} units box	#make it uniform
displace_atoms myG move -2.12434637959995 ${dyy} ${dzz} units box	
displace_atoms myG move -2.12434637959995 28.7142443749971 ${dzz} units box	
displace_atoms myG move -2.12434637959995 28.7142443749971 56 units box	
#displace_atoms myG move 0 0  50 units box		#make it uniform
reset_ids
Resetting atom IDs ...

variable	E equal 50*(1.6e-19)				#units: eV
variable	mass equal (mass(myG))*(1.6605e-27)
variable        cvel equal (-1)*(sqrt(2*${E}/${mass}))/100	#metal units: vel = 1 Angstr/ps = 100 m/s
variable        cvel equal (-1)*(sqrt(2*8e-18/${mass}))/100	
variable        cvel equal (-1)*(sqrt(2*8e-18/1.0826230851e-22))/100	
velocity        myG create 300 74657362 mom yes rot yes
velocity        myG set 0 0 ${cvel} units box
velocity        myG set 0 0 -3.84433609775096 units box

velocity        subG create 300 74657362 mom yes rot yes
set             group bottomLayer vz  0
  1261 settings made for vz
fix             freeze bottomLayer setforce NULL NULL 0.0

#compute myT 	subG temp
#thermo_modify 	temp myT

fix            1 all nve
fix            2 bottomLayer temp/berendsen 200.0 200.0 0.1
run            20000
Per MPI rank memory allocation (min/avg/max) = 0.6381 | 2.773 | 4.825 Mbytes
Step PotEng Press Pxx Pyy Pzz Lx Ly Lz Volume Temp 
   20000   -62747.417   -1599.5502   -2165.9843   -2078.8046   -553.86182    99.972562    99.972562    149.99451    1499122.1    299.72844 
   21000    -62795.59   -773.70048   -1402.7441   -1266.0535    347.69614    99.972562    99.972562    149.99451    1499122.1    324.81586 
   22000   -62800.285   -1294.3364   -1843.5984   -1771.4959   -267.91484    99.972562    99.972562    149.99451    1499122.1    326.26815 
   23000     -62806.2    -1041.492   -1604.4417   -1544.4001    24.365849    99.972562    99.972562    149.99451    1499122.1    329.08078 
   24000   -62805.234    -1101.651   -1706.9547   -1609.6868    11.688438    99.972562    99.972562    149.99451    1499122.1    325.98418 
   25000   -62811.982   -1041.6245   -1678.7515   -1476.4617    30.339536    99.972562    99.972562    149.99451    1499122.1    327.06116 
   26000   -62812.904   -1185.1628   -1795.7085   -1641.9586    -117.8213    99.972562    99.972562    149.99451    1499122.1    324.87204 
   27000   -62815.468   -1024.6501   -1583.4189   -1542.3373    51.805907    99.972562    99.972562    149.99451    1499122.1    323.92848 
   28000   -62835.072   -1258.0181   -1865.7413   -1625.3191   -282.99392    99.972562    99.972562    149.99451    1499122.1    333.14302 
   29000   -62855.621   -736.58536   -1340.0857   -1304.0306    434.36022    99.972562    99.972562    149.99451    1499122.1    340.93746 
   30000   -62848.198   -540.26981   -1169.1941   -912.21757    460.60223    99.972562    99.972562    149.99451    1499122.1    332.58489 
   31000   -62849.228    -912.0481   -1386.0273   -1232.7834   -117.33365    99.972562    99.972562    149.99451    1499122.1     329.5629 
   32000   -62869.791   -907.25499   -1419.2412   -1226.0078   -76.515993    99.972562    99.972562    149.99451    1499122.1    335.27859 
   33000   -62878.597    -966.6647   -1432.5238   -1386.1581   -81.312205    99.972562    99.972562    149.99451    1499122.1    335.37177 
   34000   -62874.072   -1131.1871   -1615.0639   -1427.2014   -351.29605    99.972562    99.972562    149.99451    1499122.1    329.25162 
   35000   -62892.691   -916.52661   -1441.8386   -1298.8286   -8.9127104    99.972562    99.972562    149.99451    1499122.1    335.68168 
   36000    -62895.69   -1020.6418    -1503.937   -1376.6076   -181.38092    99.972562    99.972562    149.99451    1499122.1    331.75414 
   37000   -62901.607    -1002.174   -1587.1753   -1343.5586   -75.787996    99.972562    99.972562    149.99451    1499122.1    329.63974 
   38000   -62908.738    -1033.505   -1572.3472   -1340.7613   -187.40635    99.972562    99.972562    149.99451    1499122.1    328.20062 
   39000    -62918.45   -991.84358   -1543.3347   -1318.7682   -113.42789    99.972562    99.972562    149.99451    1499122.1    329.19018 
   40000   -62919.285   -969.28039   -1553.4145   -1190.0291   -164.39759    99.972562    99.972562    149.99451    1499122.1    324.03649 
Loop time of 343.015 on 60 procs for 20000 steps with 14268 atoms

Performance: 5.038 ns/day, 4.764 hours/ns, 58.306 timesteps/s
60.6% CPU use with 60 MPI tasks x no OpenMP threads

MPI task timing breakdown:
Section |  min time  |  avg time  |  max time  |%varavg| %total
---------------------------------------------------------------
Pair    | 0.0085711  | 72.603     | 207.76     | 942.8 | 21.17
Neigh   | 0.0004282  | 0.13294    | 0.67817    |  65.4 |  0.04
Comm    | 0.37521    | 57.392     | 171.27     | 828.8 | 16.73
Output  | 0.42951    | 0.51253    | 0.59699    |   6.9 |  0.15
Modify  | 8.6537     | 207.56     | 338.14     | 957.2 | 60.51
Other   |            | 4.812      |            |       |  1.40

Nlocal:    237.8 ave 1060 max 0 min
Histogram: 44 0 2 0 1 1 0 0 0 12
Nghost:    634.783 ave 2183 max 0 min
Histogram: 36 0 0 0 0 4 7 5 5 3
Neighs:    16164.6 ave 79778 max 0 min
Histogram: 44 2 1 1 0 0 0 0 4 8

Total # of neighbors = 969875
Ave neighs/atom = 67.9755
Neighbor list builds = 150
Dangerous builds = 0

print		"run finished for a value $a"
run finished for a value 2

#undump	relax
#uncompute myT
unfix	freeze
unfix	1
unfix	2
group	myG	clear
group	subG 	clear
variable dxx	delete
variable dyy	delete
variable dzz  	delete

next a
jump in.CuZr_deposit l1

variable	diff equal ($(lx)-v_top)
variable	diff equal (99.972561512258494076-v_top)
if "v_diff<=20" then "change_box all z delta 0 10"
change_box all z delta 0 10
  orthogonal box = (-49.9863 -49.9863 -19.9973) to (49.9863 49.9863 139.997)

group		myG  id <= 0
0 atoms in group myG
read_data	myNanoP.txt add append group myG
  orthogonal box = (-49.9863 -49.9863 -19.9973) to (49.9863 49.9863 139.997)
  3 by 4 by 5 MPI processor grid
  reading atoms ...
  884 atoms
  reading velocities ...
  884 velocities
  read_data CPU = 0.0290201 secs
group		subG subtract all myG
14268 atoms in group subG

variable	dxx   equal  "v_dispX-0.5*v_BoxL"
variable	dyy   equal  "v_dispY-0.5*v_BoxL"
variable	dzz   equal  "v_a*3+50"
print		"${dzz}"
59

displace_atoms myG move ${dxx} ${dyy} ${dzz} units box	#make it uniform
displace_atoms myG move -13.7723376049188 ${dyy} ${dzz} units box	
displace_atoms myG move -13.7723376049188 -7.03621509650245 ${dzz} units box	
displace_atoms myG move -13.7723376049188 -7.03621509650245 59 units box	
#displace_atoms myG move 0 0  50 units box		#make it uniform
reset_ids
Resetting atom IDs ...

variable	E equal 50*(1.6e-19)				#units: eV
variable	mass equal (mass(myG))*(1.6605e-27)
variable        cvel equal (-1)*(sqrt(2*${E}/${mass}))/100	#metal units: vel = 1 Angstr/ps = 100 m/s
variable        cvel equal (-1)*(sqrt(2*8e-18/${mass}))/100	
variable        cvel equal (-1)*(sqrt(2*8e-18/1.0826230851e-22))/100	
velocity        myG create 300 74657362 mom yes rot yes
velocity        myG set 0 0 ${cvel} units box
velocity        myG set 0 0 -3.84433609775096 units box

velocity        subG create 300 74657362 mom yes rot yes
set             group bottomLayer vz  0
  1261 settings made for vz
fix             freeze bottomLayer setforce NULL NULL 0.0

#compute myT 	subG temp
#thermo_modify 	temp myT

fix            1 all nve
fix            2 bottomLayer temp/berendsen 200.0 200.0 0.1
run            20000
Per MPI rank memory allocation (min/avg/max) = 0.6498 | 2.851 | 4.836 Mbytes
Step PotEng Press Pxx Pyy Pzz Lx Ly Lz Volume Temp 
   40000    -66712.35   -1227.6092   -1814.4354   -1463.7412   -404.65095    99.972562    99.972562    159.99451    1599067.2    299.23054 
   41000   -66771.515   -720.63987   -1316.6909   -1020.2244    174.99572    99.972562    99.972562    159.99451    1599067.2    328.63889 
   42000   -66772.949   -1020.8781   -1590.6034   -1325.9678   -146.06302    99.972562    99.972562    159.99451    1599067.2    326.11306 
   43000   -66778.862   -908.24306   -1444.3555   -1258.8194   -21.554213    99.972562    99.972562    159.99451    1599067.2    326.61225 
   44000     -66780.7   -879.98851   -1396.9905    -1178.433   -64.542031    99.972562    99.972562    159.99451    1599067.2    326.37896 
   45000   -66790.025   -894.01072   -1430.5959   -1257.3773    5.9409975    99.972562    99.972562    159.99451    1599067.2    330.08772 
   46000   -66780.156   -915.00963   -1445.4729   -1210.1519   -89.404079    99.972562    99.972562    159.99451    1599067.2    323.86992 
   47000   -66784.133   -867.43305   -1358.4416   -1196.1427   -47.714815    99.972562    99.972562    159.99451    1599067.2    324.48072 
   48000   -66792.006   -981.96024   -1536.8531   -1304.2949   -104.73268    99.972562    99.972562    159.99451    1599067.2    328.81621 
   49000   -66814.916   -1080.6777   -1578.6764   -1406.8088   -256.54806    99.972562    99.972562    159.99451    1599067.2    338.85242 
   50000   -66823.232   -532.96635   -1156.1852    -964.9443    522.23041    99.972562    99.972562    159.99451    1599067.2    341.57279 
   51000   -66814.527   -625.13647   -1160.2347   -860.16307    144.98839    99.972562    99.972562    159.99451    1599067.2     332.8436 
   52000   -66825.258   -762.30488   -1241.6137   -1040.2883   -5.0127068    99.972562    99.972562    159.99451    1599067.2    334.49979 
   53000   -66846.007   -827.10746   -1300.1831   -1143.6682   -37.471141    99.972562    99.972562    159.99451    1599067.2    340.09682 
   54000   -66846.641   -929.47888   -1364.3489    -1208.673   -215.41474    99.972562    99.972562    159.99451    1599067.2    335.96278 
   55000   -66851.951   -945.75536   -1343.2032   -1285.5969   -208.46598    99.972562    99.972562    159.99451    1599067.2    335.20337 
   56000   -66864.121   -837.76552   -1306.0675   -1181.0999   -26.129161    99.972562    99.972562    159.99451    1599067.2    336.10668 
   57000   -66870.636   -757.71801   -1269.7063   -1041.8987     38.45098    99.972562    99.972562    159.99451    1599067.2    333.40623 
   58000   -66879.169   -913.73199   -1334.1818   -1240.4094   -166.60481    99.972562    99.972562    159.99451    1599067.2    332.00826 
   59000   -66889.992   -872.82507   -1320.6612   -1241.0297   -56.784253    99.972562    99.972562    159.99451    1599067.2    332.48014 
   60000   -66889.653   -916.36785   -1336.1758   -1277.4161   -135.51159    99.972562    99.972562    159.99451    1599067.2    328.89546 
Loop time of 380.171 on 60 procs for 20000 steps with 15152 atoms

Performance: 4.545 ns/day, 5.280 hours/ns, 52.608 timesteps/s
60.5% CPU use with 60 MPI tasks x no OpenMP threads

MPI task timing breakdown:
Section |  min time  |  avg time  |  max time  |%varavg| %total
---------------------------------------------------------------
Pair    | 0.009145   | 79.216     | 230.16     |1008.0 | 20.84
Neigh   | 0.00048733 | 0.15175    | 0.80501    |  69.2 |  0.04
Comm    | 0.39867    | 59.837     | 186.71     | 863.9 | 15.74
Output  | 0.46733    | 0.55443    | 0.64333    |   7.0 |  0.15
Modify  | 9.349      | 235.79     | 375.14     | 990.6 | 62.02
Other   |            | 4.623      |            |       |  1.22

Nlocal:    252.533 ave 1141 max 0 min
Histogram: 42 1 3 1 1 0 0 0 0 12
Nghost:    647.167 ave 2497 max 0 min
Histogram: 36 0 0 3 3 3 5 4 4 2
Neighs:    17254.7 ave 86697 max 0 min
Histogram: 42 4 2 0 0 0 0 0 6 6

Total # of neighbors = 1035282
Ave neighs/atom = 68.3264
Neighbor list builds = 153
Dangerous builds = 0

print		"run finished for a value $a"
run finished for a value 3

#undump	relax
#uncompute myT
unfix	freeze
unfix	1
unfix	2
group	myG	clear
group	subG 	clear
variable dxx	delete
variable dyy	delete
variable dzz  	delete

next a
jump in.CuZr_deposit l1

variable	diff equal ($(lx)-v_top)
variable	diff equal (99.972561512258494076-v_top)
if "v_diff<=20" then "change_box all z delta 0 10"
change_box all z delta 0 10
  orthogonal box = (-49.9863 -49.9863 -19.9973) to (49.9863 49.9863 149.997)

group		myG  id <= 0
0 atoms in group myG
read_data	myNanoP.txt add append group myG
  orthogonal box = (-49.9863 -49.9863 -19.9973) to (49.9863 49.9863 149.997)
  3 by 4 by 5 MPI processor grid
  reading atoms ...
  884 atoms
  reading velocities ...
  884 velocities
  read_data CPU = 0.0284979 secs
group		subG subtract all myG
15152 atoms in group subG

variable	dxx   equal  "v_dispX-0.5*v_BoxL"
variable	dyy   equal  "v_dispY-0.5*v_BoxL"
variable	dzz   equal  "v_a*3+50"
print		"${dzz}"
62

displace_atoms myG move ${dxx} ${dyy} ${dzz} units box	#make it uniform
displace_atoms myG move 33.9735068647164 ${dyy} ${dzz} units box	
displace_atoms myG move 33.9735068647164 -38.7787125422284 ${dzz} units box	
displace_atoms myG move 33.9735068647164 -38.7787125422284 62 units box	
#displace_atoms myG move 0 0  50 units box		#make it uniform
reset_ids
Resetting atom IDs ...

variable	E equal 50*(1.6e-19)				#units: eV
variable	mass equal (mass(myG))*(1.6605e-27)
variable        cvel equal (-1)*(sqrt(2*${E}/${mass}))/100	#metal units: vel = 1 Angstr/ps = 100 m/s
variable        cvel equal (-1)*(sqrt(2*8e-18/${mass}))/100	
variable        cvel equal (-1)*(sqrt(2*8e-18/1.08262308510001e-22))/100	
velocity        myG create 300 74657362 mom yes rot yes
velocity        myG set 0 0 ${cvel} units box
velocity        myG set 0 0 -3.84433609775094 units box

velocity        subG create 300 74657362 mom yes rot yes
set             group bottomLayer vz  0
  1261 settings made for vz
fix             freeze bottomLayer setforce NULL NULL 0.0

#compute myT 	subG temp
#thermo_modify 	temp myT

fix            1 all nve
fix            2 bottomLayer temp/berendsen 200.0 200.0 0.1
run            20000
Per MPI rank memory allocation (min/avg/max) = 0.6582 | 2.963 | 4.862 Mbytes
Step PotEng Press Pxx Pyy Pzz Lx Ly Lz Volume Temp 
   60000   -70682.718   -1169.7209   -1589.6627   -1548.2384   -371.26172    99.972562    99.972562    169.99451    1699012.4    299.73423 
   61000   -70750.997   -627.28718   -1130.9975   -947.88469    197.02067    99.972562    99.972562    169.99451    1699012.4    329.49346 
   62000   -70753.427   -987.96741    -1414.223   -1381.1016    -168.5776    99.972562    99.972562    169.99451    1699012.4    328.76048 
   63000   -70759.625   -669.91246   -1204.9437   -1059.4215    254.62776    99.972562    99.972562    169.99451    1699012.4    330.54043 
   64000   -70761.544   -884.90877   -1289.0526   -1334.9252   -30.748521    99.972562    99.972562    169.99451    1699012.4    329.39531 
   65000   -70762.575    -945.9028   -1383.9682   -1276.2404   -177.49974    99.972562    99.972562    169.99451    1699012.4     328.2696 
   66000   -70772.963   -963.92686   -1461.6189   -1330.7222   -99.439472    99.972562    99.972562    169.99451    1699012.4    330.36313 
   67000   -70774.555    -798.5679    -1293.007   -1200.3299    97.633262    99.972562    99.972562    169.99451    1699012.4    330.33685 
   68000   -70771.689   -1003.1965   -1447.7308   -1418.3019   -143.55661    99.972562    99.972562    169.99451    1699012.4    326.61722 
   69000   -70778.335   -791.78608   -1234.2731   -1280.7296    139.64439    99.972562    99.972562    169.99451    1699012.4    326.93086 
   70000   -70810.218   -1059.9406   -1446.4423   -1499.1785   -234.20111    99.972562    99.972562    169.99451    1699012.4     339.6716 
   71000   -70811.111   -476.54254   -1003.8641   -936.58228    510.81874    99.972562    99.972562    169.99451    1699012.4    336.86524 
   72000   -70814.734   -636.49778   -1032.6143   -985.78056    108.90152    99.972562    99.972562    169.99451    1699012.4    335.77661 
   73000   -70822.923   -854.55005   -1253.8989   -1176.4662   -133.28501    99.972562    99.972562    169.99451    1699012.4    335.71006 
   74000   -70840.412   -900.66586   -1270.4771   -1180.9482   -250.57227    99.972562    99.972562    169.99451    1699012.4    340.92255 
   75000   -70839.661   -762.37227   -1167.5554   -1063.7746   -55.786855    99.972562    99.972562    169.99451    1699012.4    335.70478 
   76000   -70849.272   -907.23941   -1301.2733   -1256.6069   -163.83805    99.972562    99.972562    169.99451    1699012.4    334.89638 
   77000   -70856.517    -866.9748   -1268.0435   -1212.9854   -119.89547    99.972562    99.972562    169.99451    1699012.4    332.99935 
   78000   -70862.669   -772.73289    -1176.717   -1122.2183    -19.26346    99.972562    99.972562    169.99451    1699012.4    331.53942 
   79000   -70875.037   -808.19753   -1267.4534   -1143.9837   -13.155518    99.972562    99.972562    169.99451    1699012.4    332.04018 
   80000    -70875.22   -885.89069   -1221.4421   -1331.6025   -104.62745    99.972562    99.972562    169.99451    1699012.4    328.02244 
Loop time of 397.826 on 60 procs for 20000 steps with 16036 atoms

Performance: 4.344 ns/day, 5.525 hours/ns, 50.273 timesteps/s
60.2% CPU use with 60 MPI tasks x no OpenMP threads

MPI task timing breakdown:
Section |  min time  |  avg time  |  max time  |%varavg| %total
---------------------------------------------------------------
Pair    | 0.0087981  | 85.609     | 243.74     |1003.4 | 21.52
Neigh   | 0.00051761 | 0.1629     | 0.88041    |  72.2 |  0.04
Comm    | 0.38346    | 66.39      | 192.38     | 891.5 | 16.69
Output  | 0.48842    | 0.57818    | 0.67153    |   7.2 |  0.15
Modify  | 9.3082     | 240.47     | 392.81     |1035.8 | 60.45
Other   |            | 4.619      |            |       |  1.16

Nlocal:    267.267 ave 1247 max 0 min
Histogram: 41 4 1 1 1 0 0 0 4 8
Nghost:    650.1 ave 2548 max 0 min
Histogram: 36 0 0 3 6 2 1 4 5 3
Neighs:    18314.9 ave 93971 max 0 min
Histogram: 42 5 1 0 0 0 0 3 3 6

Total # of neighbors = 1098895
Ave neighs/atom = 68.5268
Neighbor list builds = 154
Dangerous builds = 0

print		"run finished for a value $a"
run finished for a value 4

#undump	relax
#uncompute myT
unfix	freeze
unfix	1
unfix	2
group	myG	clear
group	subG 	clear
variable dxx	delete
variable dyy	delete
variable dzz  	delete

next a
jump in.CuZr_deposit l1

variable	diff equal ($(lx)-v_top)
variable	diff equal (99.972561512258494076-v_top)
if "v_diff<=20" then "change_box all z delta 0 10"
change_box all z delta 0 10
  orthogonal box = (-49.9863 -49.9863 -19.9973) to (49.9863 49.9863 159.997)

group		myG  id <= 0
0 atoms in group myG
read_data	myNanoP.txt add append group myG
  orthogonal box = (-49.9863 -49.9863 -19.9973) to (49.9863 49.9863 159.997)
  4 by 3 by 5 MPI processor grid
  reading atoms ...
  884 atoms
  reading velocities ...
  884 velocities
  read_data CPU = 0.033874 secs
group		subG subtract all myG
16036 atoms in group subG

variable	dxx   equal  "v_dispX-0.5*v_BoxL"
variable	dyy   equal  "v_dispY-0.5*v_BoxL"
variable	dzz   equal  "v_a*3+50"
print		"${dzz}"
65

displace_atoms myG move ${dxx} ${dyy} ${dzz} units box	#make it uniform
displace_atoms myG move -39.0982785835395 ${dyy} ${dzz} units box	
displace_atoms myG move -39.0982785835395 -25.4754837516118 ${dzz} units box	
displace_atoms myG move -39.0982785835395 -25.4754837516118 65 units box	
#displace_atoms myG move 0 0  50 units box		#make it uniform
reset_ids
Resetting atom IDs ...

variable	E equal 50*(1.6e-19)				#units: eV
variable	mass equal (mass(myG))*(1.6605e-27)
variable        cvel equal (-1)*(sqrt(2*${E}/${mass}))/100	#metal units: vel = 1 Angstr/ps = 100 m/s
variable        cvel equal (-1)*(sqrt(2*8e-18/${mass}))/100	
variable        cvel equal (-1)*(sqrt(2*8e-18/1.08262308510001e-22))/100	
velocity        myG create 300 74657362 mom yes rot yes
velocity        myG set 0 0 ${cvel} units box
velocity        myG set 0 0 -3.84433609775094 units box

velocity        subG create 300 74657362 mom yes rot yes
set             group bottomLayer vz  0
  1261 settings made for vz
fix             freeze bottomLayer setforce NULL NULL 0.0

#compute myT 	subG temp
#thermo_modify 	temp myT

fix            1 all nve
fix            2 bottomLayer temp/berendsen 200.0 200.0 0.1
run            20000
Per MPI rank memory allocation (min/avg/max) = 0.6694 | 3.047 | 5.239 Mbytes
Step PotEng Press Pxx Pyy Pzz Lx Ly Lz Volume Temp 
   80000   -74668.285   -1127.8509    -1477.854   -1585.9715   -319.72708    99.972562    99.972562    179.99451    1798957.5    299.66846 
   81000   -74735.765   -695.36052   -1192.0712     -1013.23    119.21959    99.972562    99.972562    179.99451    1798957.5    327.88004 
   82000   -74738.648   -740.18816   -1182.4162   -1047.3832    9.2349126    99.972562    99.972562    179.99451    1798957.5    328.14028 
   83000   -74739.375   -948.15751   -1331.6333   -1228.3333     -284.506    99.972562    99.972562    179.99451    1798957.5    326.85522 
   84000   -74745.471   -625.53846   -1030.1496   -1002.9397    156.47387    99.972562    99.972562    179.99451    1798957.5    328.05154 
   85000   -74741.311   -874.25322   -1297.8121   -1200.8501   -124.09748    99.972562    99.972562    179.99451    1798957.5    323.83725 
   86000   -74754.506    -742.4542   -1114.8638   -1088.5759   -23.922828    99.972562    99.972562    179.99451    1798957.5    327.87627 
   87000   -74750.459   -814.49201   -1222.4278   -1203.6238   -17.424488    99.972562    99.972562    179.99451    1798957.5    323.92491 
   88000   -74759.708   -843.72425   -1250.2576   -1164.0828   -116.83233    99.972562    99.972562    179.99451    1798957.5    325.51751 
   89000   -74759.194   -838.37888   -1221.6897   -1207.5036   -85.943344    99.972562    99.972562    179.99451    1798957.5    322.91289 
   90000   -74772.908   -895.66134   -1297.4881   -1292.2865   -97.209434    99.972562    99.972562    179.99451    1798957.5    327.22449 
   91000    -74815.45   -709.41523   -1172.9998   -1172.3557    217.10983    99.972562    99.972562    179.99451    1798957.5    345.32249 
   92000   -74814.645   -439.73373   -870.48445   -887.32529    438.60856    99.972562    99.972562    179.99451    1798957.5    341.88631 
   93000   -74822.763   -866.72549   -1142.9454   -1237.0334   -220.19772    99.972562    99.972562    179.99451    1798957.5     342.3693 
   94000   -74835.721   -723.36849   -1007.1062   -1120.8976   -42.101645    99.972562    99.972562    179.99451    1798957.5     343.9195 
   95000   -74850.194   -728.12434   -1077.6709   -1048.6428    -58.05927    99.972562    99.972562    179.99451    1798957.5    345.18497 
   96000    -74851.06   -882.08212   -1267.7209   -1235.0703   -143.45509    99.972562    99.972562    179.99451    1798957.5    341.84934 
   97000   -74859.031   -716.84346   -1084.0874   -1114.2642     47.82119    99.972562    99.972562    179.99451    1798957.5    340.84354 
   98000   -74864.797    -888.9372   -1255.7532   -1248.0931   -162.96529    99.972562    99.972562    179.99451    1798957.5    339.42924 
   99000   -74878.132   -834.20349   -1172.9422   -1253.9221   -75.746167    99.972562    99.972562    179.99451    1798957.5    340.19706 
  100000   -74880.078   -863.99136   -1233.4744   -1216.4764    -142.0232    99.972562    99.972562    179.99451    1798957.5    334.98321 
Loop time of 334.854 on 60 procs for 20000 steps with 16920 atoms

Performance: 5.160 ns/day, 4.651 hours/ns, 59.728 timesteps/s
59.5% CPU use with 60 MPI tasks x no OpenMP threads

MPI task timing breakdown:
Section |  min time  |  avg time  |  max time  |%varavg| %total
---------------------------------------------------------------
Pair    | 0.0080609  | 75.714     | 227.56     |1001.9 | 22.61
Neigh   | 0.00051165 | 0.17611    | 0.96775    |  75.3 |  0.05
Comm    | 0.28484    | 53.792     | 163.05     | 826.0 | 16.06
Output  | 0.49913    | 0.59543    | 0.68941    |   7.0 |  0.18
Modify  | 11.861     | 200.25     | 329.55     |1000.1 | 59.80
Other   |            | 4.324      |            |       |  1.29

Nlocal:    282 ave 1366 max 0 min
Histogram: 42 2 2 2 0 0 0 1 6 5
Nghost:    655.4 ave 2771 max 0 min
Histogram: 36 0 2 6 3 1 0 7 3 2
Neighs:    19466.9 ave 105464 max 0 min
Histogram: 43 3 2 0 0 0 0 6 2 4

Total # of neighbors = 1168013
Ave neighs/atom = 69.0315
Neighbor list builds = 156
Dangerous builds = 0

print		"run finished for a value $a"
run finished for a value 5

#undump	relax
#uncompute myT
unfix	freeze
unfix	1
unfix	2
group	myG	clear
group	subG 	clear
variable dxx	delete
variable dyy	delete
variable dzz  	delete

next a
jump in.CuZr_deposit l1

variable	diff equal ($(lx)-v_top)
variable	diff equal (99.972561512258494076-v_top)
if "v_diff<=20" then "change_box all z delta 0 10"
change_box all z delta 0 10
  orthogonal box = (-49.9863 -49.9863 -19.9973) to (49.9863 49.9863 169.997)

group		myG  id <= 0
0 atoms in group myG
read_data	myNanoP.txt add append group myG
  orthogonal box = (-49.9863 -49.9863 -19.9973) to (49.9863 49.9863 169.997)
  3 by 4 by 5 MPI processor grid
  reading atoms ...
  884 atoms
  reading velocities ...
  884 velocities
  read_data CPU = 0.0329592 secs
group		subG subtract all myG
16920 atoms in group subG

variable	dxx   equal  "v_dispX-0.5*v_BoxL"
variable	dyy   equal  "v_dispY-0.5*v_BoxL"
variable	dzz   equal  "v_a*3+50"
print		"${dzz}"
68

displace_atoms myG move ${dxx} ${dyy} ${dzz} units box	#make it uniform
displace_atoms myG move -37.2893687767424 ${dyy} ${dzz} units box	
displace_atoms myG move -37.2893687767424 41.3890073869306 ${dzz} units box	
displace_atoms myG move -37.2893687767424 41.3890073869306 68 units box	
#displace_atoms myG move 0 0  50 units box		#make it uniform
reset_ids
Resetting atom IDs ...

variable	E equal 50*(1.6e-19)				#units: eV
variable	mass equal (mass(myG))*(1.6605e-27)
variable        cvel equal (-1)*(sqrt(2*${E}/${mass}))/100	#metal units: vel = 1 Angstr/ps = 100 m/s
variable        cvel equal (-1)*(sqrt(2*8e-18/${mass}))/100	
variable        cvel equal (-1)*(sqrt(2*8e-18/1.08262308510001e-22))/100	
velocity        myG create 300 74657362 mom yes rot yes
velocity        myG set 0 0 ${cvel} units box
velocity        myG set 0 0 -3.84433609775094 units box

velocity        subG create 300 74657362 mom yes rot yes
set             group bottomLayer vz  0
  1261 settings made for vz
fix             freeze bottomLayer setforce NULL NULL 0.0

#compute myT 	subG temp
#thermo_modify 	temp myT

fix            1 all nve
fix            2 bottomLayer temp/berendsen 200.0 200.0 0.1
run            20000
Per MPI rank memory allocation (min/avg/max) = 0.6813 | 3.153 | 5.27 Mbytes
Step PotEng Press Pxx Pyy Pzz Lx Ly Lz Volume Temp 
  100000   -78673.143   -1104.5786   -1485.2105   -1468.1278   -360.39737    99.972562    99.972562    189.99451    1898902.6    299.80416 
  101000   -78753.827   -630.52996   -1050.9424    -1064.762    224.11445    99.972562    99.972562    189.99451    1898902.6    334.03504 
  102000   -78756.099   -861.06546   -1236.3466   -1248.1573   -98.692514    99.972562    99.972562    189.99451    1898902.6    333.21249 
  103000   -78762.019   -761.54114   -1161.7593   -1168.2602    45.396105    99.972562    99.972562    189.99451    1898902.6    334.00075 
  104000   -78761.819   -756.75105   -1142.5685   -1147.2019    19.517235    99.972562    99.972562    189.99451    1898902.6    332.34258 
  105000   -78765.404   -916.16666   -1301.8166   -1281.3355   -165.34782    99.972562    99.972562    189.99451    1898902.6    331.69254 
  106000   -78773.281   -741.90032   -1057.4048   -1141.5361   -26.760092    99.972562    99.972562    189.99451    1898902.6    332.10461 
  107000   -78775.456   -752.75699   -1152.2136    -1154.699    48.641687    99.972562    99.972562    189.99451    1898902.6    330.17054 
  108000   -78776.285    -751.2806   -1068.7467    -1164.551   -20.544049    99.972562    99.972562    189.99451    1898902.6    328.65019 
  109000   -78782.151   -814.32729   -1200.5729   -1210.0607   -32.348258    99.972562    99.972562    189.99451    1898902.6    329.48676 
  110000   -78792.403   -779.57645   -1162.3792   -1158.8776   -17.472593    99.972562    99.972562    189.99451    1898902.6    330.46813 
  111000   -78809.428   -885.46574   -1217.1279   -1285.6442   -153.62511    99.972562    99.972562    189.99451    1898902.6    335.52474 
  112000    -78837.92   -576.40094   -960.72123   -1048.4448    279.96325    99.972562    99.972562    189.99451    1898902.6    345.83009 
  113000   -78839.049   -270.38992   -657.38147   -632.43154    478.64324    99.972562    99.972562    189.99451    1898902.6    342.39406 
  114000   -78851.174   -878.33212   -1126.1199   -1183.9793    -324.8972    99.972562    99.972562    189.99451    1898902.6    343.88229 
  115000   -78870.005   -578.71476   -879.78759   -929.49887    73.142184    99.972562    99.972562    189.99451    1898902.6     348.1948 
  116000   -78884.968   -744.44052     -1071.61   -1046.0308   -115.68076    99.972562    99.972562    189.99451    1898902.6    349.07988 
  117000   -78893.284   -849.58363   -1167.3518   -1228.4587   -152.94041    99.972562    99.972562    189.99451    1898902.6    349.23491 
  118000   -78903.884   -777.57361   -1120.6909   -1176.2185   -35.811447    99.972562    99.972562    189.99451    1898902.6    348.30238 
  119000   -78911.369   -690.26668   -1053.9161   -1078.5653     61.68138    99.972562    99.972562    189.99451    1898902.6    345.94163 
  120000   -78926.366    -823.8303   -1111.2018    -1197.046   -163.24309    99.972562    99.972562    189.99451    1898902.6     346.6863 
Loop time of 425.865 on 60 procs for 20000 steps with 17804 atoms

Performance: 4.058 ns/day, 5.915 hours/ns, 46.963 timesteps/s
58.7% CPU use with 60 MPI tasks x no OpenMP threads

MPI task timing breakdown:
Section |  min time  |  avg time  |  max time  |%varavg| %total
---------------------------------------------------------------
Pair    | 0.0082476  | 90.347     | 270.34     |1063.7 | 21.21
Neigh   | 0.00058722 | 0.19278    | 1.138      |  80.6 |  0.05
Comm    | 0.46034    | 70.424     | 202.07     | 938.9 | 16.54
Output  | 0.5219     | 0.62321    | 0.72111    |   7.3 |  0.15
Modify  | 13.18      | 259.73     | 420.72     |1080.8 | 60.99
Other   |            | 4.551      |            |       |  1.07

Nlocal:    296.733 ave 1469 max 0 min
Histogram: 42 3 3 0 0 0 0 2 4 6
Nghost:    674.133 ave 2903 max 0 min
Histogram: 36 1 4 3 3 1 1 5 3 3
Neighs:    20652.3 ave 114095 max 0 min
Histogram: 44 4 0 0 0 0 1 4 3 4

Total # of neighbors = 1239138
Ave neighs/atom = 69.5989
Neighbor list builds = 159
Dangerous builds = 0

print		"run finished for a value $a"
run finished for a value 6

#undump	relax
#uncompute myT
unfix	freeze
unfix	1
unfix	2
group	myG	clear
group	subG 	clear
variable dxx	delete
variable dyy	delete
variable dzz  	delete

next a
jump in.CuZr_deposit l1

variable	diff equal ($(lx)-v_top)
variable	diff equal (99.972561512258494076-v_top)
if "v_diff<=20" then "change_box all z delta 0 10"
change_box all z delta 0 10
  orthogonal box = (-49.9863 -49.9863 -19.9973) to (49.9863 49.9863 179.997)

group		myG  id <= 0
0 atoms in group myG
read_data	myNanoP.txt add append group myG
  orthogonal box = (-49.9863 -49.9863 -19.9973) to (49.9863 49.9863 179.997)
  3 by 4 by 5 MPI processor grid
  reading atoms ...
  884 atoms
  reading velocities ...
  884 velocities
  read_data CPU = 0.0287158 secs
group		subG subtract all myG
17804 atoms in group subG

variable	dxx   equal  "v_dispX-0.5*v_BoxL"
variable	dyy   equal  "v_dispY-0.5*v_BoxL"
variable	dzz   equal  "v_a*3+50"
print		"${dzz}"
71

displace_atoms myG move ${dxx} ${dyy} ${dzz} units box	#make it uniform
displace_atoms myG move -46.4057872474927 ${dyy} ${dzz} units box	
displace_atoms myG move -46.4057872474927 1.33996783970736 ${dzz} units box	
displace_atoms myG move -46.4057872474927 1.33996783970736 71 units box	
#displace_atoms myG move 0 0  50 units box		#make it uniform
reset_ids
Resetting atom IDs ...

variable	E equal 50*(1.6e-19)				#units: eV
variable	mass equal (mass(myG))*(1.6605e-27)
variable        cvel equal (-1)*(sqrt(2*${E}/${mass}))/100	#metal units: vel = 1 Angstr/ps = 100 m/s
variable        cvel equal (-1)*(sqrt(2*8e-18/${mass}))/100	
variable        cvel equal (-1)*(sqrt(2*8e-18/1.0826230851e-22))/100	
velocity        myG create 300 74657362 mom yes rot yes
velocity        myG set 0 0 ${cvel} units box
velocity        myG set 0 0 -3.84433609775096 units box

velocity        subG create 300 74657362 mom yes rot yes
set             group bottomLayer vz  0
  1261 settings made for vz
fix             freeze bottomLayer setforce NULL NULL 0.0

#compute myT 	subG temp
#thermo_modify 	temp myT

fix            1 all nve
fix            2 bottomLayer temp/berendsen 200.0 200.0 0.1
run            20000
Per MPI rank memory allocation (min/avg/max) = 0.6938 | 3.179 | 5.279 Mbytes
Step PotEng Press Pxx Pyy Pzz Lx Ly Lz Volume Temp 
  120000   -82719.431   -1071.0987   -1370.1099   -1461.0493   -382.13674    99.972562    99.972562    199.99451    1998847.8     299.6775 
  121000     -82797.1   -694.61789   -1046.6526    -1083.276    46.074913    99.972562    99.972562    199.99451    1998847.8    331.92135 
  122000    -82810.79   -745.71431    -1092.658    -1192.974    48.489066    99.972562    99.972562    199.99451    1998847.8    333.07889 
  123000   -82813.902   -820.83448   -1191.4734   -1198.6555   -72.374557    99.972562    99.972562    199.99451    1998847.8    332.97374 
  124000   -82824.177   -618.13592    -1056.397   -945.82037    147.80961    99.972562    99.972562    199.99451    1998847.8    335.91988 
  125000   -82822.837   -876.89022   -1182.6851   -1219.8696   -228.11591    99.972562    99.972562    199.99451    1998847.8    332.89113 
  126000   -82828.035   -736.51656   -1109.9114    -1052.456   -47.182292    99.972562    99.972562    199.99451    1998847.8    332.66413 
  127000    -82831.15   -812.97694   -1122.9284   -1154.5196   -161.48281    99.972562    99.972562    199.99451    1998847.8    332.10244 
  128000   -82851.615   -813.34999   -1152.8809   -1151.5279   -135.64113    99.972562    99.972562    199.99451    1998847.8    337.55236 
  129000   -82853.879   -567.59888   -979.83076   -940.38648    217.42062    99.972562    99.972562    199.99451    1998847.8    337.63315 
  130000   -82860.444   -534.51232   -910.76896   -855.06373    162.29572    99.972562    99.972562    199.99451    1998847.8    337.89796 
  131000   -82863.978   -670.61844   -1054.1468   -1032.4068    74.698327    99.972562    99.972562    199.99451    1998847.8    338.09264 
  132000   -82870.059   -632.93031   -919.79808   -995.48745    16.494596    99.972562    99.972562    199.99451    1998847.8    337.75621 
  133000   -82892.066   -729.49824   -1015.3572   -1087.2886    -85.84893    99.972562    99.972562    199.99451    1998847.8    343.53287 
  134000   -82893.514    -730.5146   -1135.3458   -972.01119   -84.186817    99.972562    99.972562    199.99451    1998847.8    342.28964 
  135000   -82901.849   -729.42849   -956.19177   -1090.7044   -141.38928    99.972562    99.972562    199.99451    1998847.8    342.17094 
  136000   -82905.641   -888.20237     -1199.14    -1149.671   -315.79606    99.972562    99.972562    199.99451    1998847.8    340.54526 
  137000   -82906.818   -641.98879   -912.20708   -1009.4408   -4.3185201    99.972562    99.972562    199.99451    1998847.8    338.17056 
  138000   -82918.796   -611.91044   -922.07046   -887.71201   -25.948841    99.972562    99.972562    199.99451    1998847.8    339.78666 
  139000   -82926.724   -749.13008   -1045.3779   -1004.6604   -197.35203    99.972562    99.972562    199.99451    1998847.8    339.37516 
  140000   -82926.518   -683.29948   -944.16874   -969.35241    -136.3773    99.972562    99.972562    199.99451    1998847.8    336.24117 
Loop time of 448.314 on 60 procs for 20000 steps with 18688 atoms

Performance: 3.854 ns/day, 6.227 hours/ns, 44.612 timesteps/s
58.5% CPU use with 60 MPI tasks x no OpenMP threads

MPI task timing breakdown:
Section |  min time  |  avg time  |  max time  |%varavg| %total
---------------------------------------------------------------
Pair    | 0.0090194  | 91.773     | 284.49     |1139.4 | 20.47
Neigh   | 0.00055313 | 0.19671    | 1.1502     |  81.8 |  0.04
Comm    | 0.42188    | 71.758     | 213.84     | 985.9 | 16.01
Output  | 0.54911    | 0.65123    | 0.74944    |   7.2 |  0.15
Modify  | 12.377     | 279.17     | 443        |1117.6 | 62.27
Other   |            | 4.761      |            |       |  1.06

Nlocal:    311.467 ave 1577 max 0 min
Histogram: 41 5 1 1 0 0 1 3 3 5
Nghost:    676.9 ave 3107 max 0 min
Histogram: 37 2 4 3 0 2 3 5 2 2
Neighs:    21744.8 ave 123226 max 0 min
Histogram: 46 1 1 0 0 1 1 4 3 3

Total # of neighbors = 1304685
Ave neighs/atom = 69.8141
Neighbor list builds = 155
Dangerous builds = 0

print		"run finished for a value $a"
run finished for a value 7

#undump	relax
#uncompute myT
unfix	freeze
unfix	1
unfix	2
group	myG	clear
group	subG 	clear
variable dxx	delete
variable dyy	delete
variable dzz  	delete

next a
jump in.CuZr_deposit l1

variable	diff equal ($(lx)-v_top)
variable	diff equal (99.972561512258494076-v_top)
if "v_diff<=20" then "change_box all z delta 0 10"
change_box all z delta 0 10
  orthogonal box = (-49.9863 -49.9863 -19.9973) to (49.9863 49.9863 189.997)

group		myG  id <= 0
0 atoms in group myG
read_data	myNanoP.txt add append group myG
  orthogonal box = (-49.9863 -49.9863 -19.9973) to (49.9863 49.9863 189.997)
  4 by 3 by 5 MPI processor grid
  reading atoms ...
  884 atoms
  reading velocities ...
  884 velocities
  read_data CPU = 0.0339651 secs
group		subG subtract all myG
18688 atoms in group subG

variable	dxx   equal  "v_dispX-0.5*v_BoxL"
variable	dyy   equal  "v_dispY-0.5*v_BoxL"
variable	dzz   equal  "v_a*3+50"
print		"${dzz}"
74

displace_atoms myG move ${dxx} ${dyy} ${dzz} units box	#make it uniform
displace_atoms myG move 3.90159096900485 ${dyy} ${dzz} units box	
displace_atoms myG move 3.90159096900485 25.1972302718703 ${dzz} units box	
displace_atoms myG move 3.90159096900485 25.1972302718703 74 units box	
#displace_atoms myG move 0 0  50 units box		#make it uniform
reset_ids
Resetting atom IDs ...

variable	E equal 50*(1.6e-19)				#units: eV
variable	mass equal (mass(myG))*(1.6605e-27)
variable        cvel equal (-1)*(sqrt(2*${E}/${mass}))/100	#metal units: vel = 1 Angstr/ps = 100 m/s
variable        cvel equal (-1)*(sqrt(2*8e-18/${mass}))/100	
variable        cvel equal (-1)*(sqrt(2*8e-18/1.0826230851e-22))/100	
velocity        myG create 300 74657362 mom yes rot yes
velocity        myG set 0 0 ${cvel} units box
velocity        myG set 0 0 -3.84433609775096 units box

velocity        subG create 300 74657362 mom yes rot yes
set             group bottomLayer vz  0
  1261 settings made for vz
fix             freeze bottomLayer setforce NULL NULL 0.0

#compute myT 	subG temp
#thermo_modify 	temp myT

fix            1 all nve
fix            2 bottomLayer temp/berendsen 200.0 200.0 0.1
run            20000
Per MPI rank memory allocation (min/avg/max) = 0.704 | 3.238 | 5.289 Mbytes
Step PotEng Press Pxx Pyy Pzz Lx Ly Lz Volume Temp 
  140000   -86719.583   -915.37024   -1184.6535   -1216.5105   -344.94673    99.972562    99.972562    209.99451    2098792.9    299.68395 
  141000   -86798.331   -491.38327   -836.10675   -795.06255     157.0195    99.972562    99.972562    209.99451    2098792.9    330.04467 
  142000   -86799.951   -657.80247   -967.62199   -1014.5611    8.7756307    99.972562    99.972562    209.99451    2098792.9    329.36761 
  143000   -86809.575   -698.47457   -977.88389   -1022.7632   -94.776655    99.972562    99.972562    209.99451    2098792.9    331.51893 
  144000   -86811.431   -591.42093   -917.97568   -857.89976    1.6126309    99.972562    99.972562    209.99451    2098792.9    331.16239 
  145000   -86812.761   -651.15105   -913.75308   -976.54617   -63.153908    99.972562    99.972562    209.99451    2098792.9    331.50906 
  146000   -86809.626   -586.47358   -876.06645   -952.25648    68.902189    99.972562    99.972562    209.99451    2098792.9    328.60434 
  147000   -86821.367   -670.43487   -974.12761   -1011.5869   -25.590078    99.972562    99.972562    209.99451    2098792.9    331.82408 
  148000   -86832.647   -738.83858   -1079.5087   -1052.1633   -84.843737    99.972562    99.972562    209.99451    2098792.9    334.57743 
  149000   -86839.285   -640.49219   -1018.7657   -960.63078    57.919878    99.972562    99.972562    209.99451    2098792.9    335.70155 
  150000   -86828.644   -410.07937   -769.12213   -844.89618    383.78018    99.972562    99.972562    209.99451    2098792.9    330.16895 
  151000   -86835.846   -385.71691   -719.40381   -738.68953    300.94262    99.972562    99.972562    209.99451    2098792.9    330.28514 
  152000   -86829.621   -746.31275   -989.43685   -1136.1341   -113.36733    99.972562    99.972562    209.99451    2098792.9    324.62654 
  153000    -86848.33   -644.21274   -902.57979   -926.11775   -103.94067    99.972562    99.972562    209.99451    2098792.9    329.69549 
  154000   -86848.073   -711.86856    -996.3411   -1032.6393   -106.62531    99.972562    99.972562    209.99451    2098792.9    328.27429 
  155000   -86857.102   -687.46889    -974.5512   -996.34174   -91.513725    99.972562    99.972562    209.99451    2098792.9    329.31219 
  156000   -86866.125    -715.5922   -1052.2024   -979.71988    -114.8543    99.972562    99.972562    209.99451    2098792.9    330.02091 
  157000   -86860.949   -728.34271   -1024.8746   -1040.7134   -119.44013    99.972562    99.972562    209.99451    2098792.9     326.2424 
  158000   -86870.623   -623.87496   -926.75683   -915.28289   -29.585152    99.972562    99.972562    209.99451    2098792.9    328.26493 
  159000   -86868.169   -729.13146   -988.10881   -1062.4299   -136.85572    99.972562    99.972562    209.99451    2098792.9    324.81085 
  160000   -86877.343   -647.39416   -918.10862   -934.02745   -90.046405    99.972562    99.972562    209.99451    2098792.9    324.85274 
Loop time of 381.875 on 60 procs for 20000 steps with 19572 atoms

Performance: 4.525 ns/day, 5.304 hours/ns, 52.373 timesteps/s
59.2% CPU use with 60 MPI tasks x no OpenMP threads

MPI task timing breakdown:
Section |  min time  |  avg time  |  max time  |%varavg| %total
---------------------------------------------------------------
Pair    | 0.0082293  | 85.869     | 270.41     |1086.0 | 22.49
Neigh   | 0.00056314 | 0.20132    | 1.1954     |  82.9 |  0.05
Comm    | 0.31176    | 58.079     | 185.74     | 899.4 | 15.21
Output  | 0.53068    | 0.62683    | 0.72559    |   7.2 |  0.16
Modify  | 17.223     | 232.39     | 376.14     |1057.1 | 60.85
Other   |            | 4.709      |            |       |  1.23

Nlocal:    326.2 ave 1676 max 0 min
Histogram: 42 4 1 1 0 0 2 3 1 6
Nghost:    684.033 ave 3077 max 0 min
Histogram: 36 2 4 4 2 0 1 3 6 2
Neighs:    22739.7 ave 130408 max 0 min
Histogram: 44 3 1 0 0 1 3 2 2 4

Total # of neighbors = 1364384
Ave neighs/atom = 69.711
Neighbor list builds = 151
Dangerous builds = 0

print		"run finished for a value $a"
run finished for a value 8

#undump	relax
#uncompute myT
unfix	freeze
unfix	1
unfix	2
group	myG	clear
group	subG 	clear
variable dxx	delete
variable dyy	delete
variable dzz  	delete

next a
jump in.CuZr_deposit l1

variable	diff equal ($(lx)-v_top)
variable	diff equal (99.972561512258494076-v_top)
if "v_diff<=20" then "change_box all z delta 0 10"
change_box all z delta 0 10
  orthogonal box = (-49.9863 -49.9863 -19.9973) to (49.9863 49.9863 199.997)

group		myG  id <= 0
0 atoms in group myG
read_data	myNanoP.txt add append group myG
  orthogonal box = (-49.9863 -49.9863 -19.9973) to (49.9863 49.9863 199.997)
  3 by 4 by 5 MPI processor grid
  reading atoms ...
  884 atoms
  reading velocities ...
  884 velocities
  read_data CPU = 0.033989 secs
group		subG subtract all myG
19572 atoms in group subG

variable	dxx   equal  "v_dispX-0.5*v_BoxL"
variable	dyy   equal  "v_dispY-0.5*v_BoxL"
variable	dzz   equal  "v_a*3+50"
print		"${dzz}"
77

displace_atoms myG move ${dxx} ${dyy} ${dzz} units box	#make it uniform
displace_atoms myG move 9.22177056775705 ${dyy} ${dzz} units box	
displace_atoms myG move 9.22177056775705 -11.8836212011074 ${dzz} units box	
displace_atoms myG move 9.22177056775705 -11.8836212011074 77 units box	
#displace_atoms myG move 0 0  50 units box		#make it uniform
reset_ids
Resetting atom IDs ...

variable	E equal 50*(1.6e-19)				#units: eV
variable	mass equal (mass(myG))*(1.6605e-27)
variable        cvel equal (-1)*(sqrt(2*${E}/${mass}))/100	#metal units: vel = 1 Angstr/ps = 100 m/s
variable        cvel equal (-1)*(sqrt(2*8e-18/${mass}))/100	
variable        cvel equal (-1)*(sqrt(2*8e-18/1.08262308510001e-22))/100	
velocity        myG create 300 74657362 mom yes rot yes
velocity        myG set 0 0 ${cvel} units box
velocity        myG set 0 0 -3.84433609775094 units box

velocity        subG create 300 74657362 mom yes rot yes
set             group bottomLayer vz  0
  1261 settings made for vz
fix             freeze bottomLayer setforce NULL NULL 0.0

#compute myT 	subG temp
#thermo_modify 	temp myT

fix            1 all nve
fix            2 bottomLayer temp/berendsen 200.0 200.0 0.1
run            20000
Per MPI rank memory allocation (min/avg/max) = 0.7141 | 3.258 | 5.299 Mbytes
Step PotEng Press Pxx Pyy Pzz Lx Ly Lz Volume Temp 
  160000   -90670.408   -858.40051   -1142.4873    -1159.892   -272.82217    99.972562    99.972562    219.99451      2198738    299.82516 
  161000    -90740.62   -531.33032   -842.11179   -814.29836    62.419183    99.972562    99.972562    219.99451      2198738    326.16837 
  162000   -90738.195   -609.76571   -858.06917   -970.76411  -0.46384085    99.972562    99.972562    219.99451      2198738    323.69422 
  163000   -90750.491   -681.95256   -966.18553   -1008.6715   -71.000691    99.972562    99.972562    219.99451      2198738    326.26268 
  164000   -90748.438   -604.53829   -914.56273   -928.33176     29.27963    99.972562    99.972562    219.99451      2198738    323.58081 
  165000   -90746.666   -613.16369   -928.83732   -945.13379    34.480033    99.972562    99.972562    219.99451      2198738    323.75748 
  166000   -90753.174   -670.94723   -903.08007   -1040.9595   -68.802088    99.972562    99.972562    219.99451      2198738    324.68846 
  167000   -90759.765   -666.26599   -894.99014   -1022.7578   -81.050018    99.972562    99.972562    219.99451      2198738    326.02789 
  168000   -90761.594   -581.67628   -928.83113   -919.19355    102.99585    99.972562    99.972562    219.99451      2198738    325.09578 
  169000    -90762.91   -566.58019   -884.26273   -937.09268    121.61484    99.972562    99.972562    219.99451      2198738    324.24387 
  170000   -90765.843   -731.24555   -988.81697    -1009.896   -195.02369    99.972562    99.972562    219.99451      2198738    324.42047 
  171000   -90765.098    -664.4842   -906.18551   -961.32325   -125.94383    99.972562    99.972562    219.99451      2198738    323.74057 
  172000   -90775.816    -690.8457   -1009.2522   -1016.3408   -46.944172    99.972562    99.972562    219.99451      2198738    326.44013 
  173000   -90790.617   -579.96298   -903.68731   -906.18616    69.984529    99.972562    99.972562    219.99451      2198738    330.85443 
  174000   -90810.669   -329.40121   -622.74075   -750.30587    384.84298    99.972562    99.972562    219.99451      2198738    336.00233 
  175000   -90802.299   -304.83913   -583.25091    -535.2158    203.94932    99.972562    99.972562    219.99451      2198738    330.73155 
  176000   -90812.586   -571.88404   -753.26488   -850.91927   -111.46796    99.972562    99.972562    219.99451      2198738    331.79735 
  177000   -90824.426   -658.65121   -960.05495   -889.67419   -126.22449    99.972562    99.972562    219.99451      2198738    333.99451 
  178000   -90834.462   -562.38554   -885.75928   -827.26548    25.868143    99.972562    99.972562    219.99451      2198738     335.8511 
  179000   -90842.656   -494.12583   -790.38588   -791.79683    99.805224    99.972562    99.972562    219.99451      2198738    334.51002 
  180000   -90846.408   -597.15849   -842.33314   -935.88101   -13.261303    99.972562    99.972562    219.99451      2198738    332.41688 
Loop time of 506.933 on 60 procs for 20000 steps with 20456 atoms

Performance: 3.409 ns/day, 7.041 hours/ns, 39.453 timesteps/s
58.0% CPU use with 60 MPI tasks x no OpenMP threads

MPI task timing breakdown:
Section |  min time  |  avg time  |  max time  |%varavg| %total
---------------------------------------------------------------
Pair    | 0.008821   | 104.89     | 323.71     |1184.5 | 20.69
Neigh   | 0.00059223 | 0.21991    | 1.3693     |  86.6 |  0.04
Comm    | 0.44287    | 80.799     | 233.39     |1029.2 | 15.94
Output  | 0.61739    | 0.72062    | 0.81851    |   7.1 |  0.14
Modify  | 12.983     | 315.28     | 501.43     |1169.9 | 62.19
Other   |            | 5.029      |            |       |  0.99

Nlocal:    340.933 ave 1771 max 0 min
Histogram: 43 2 3 0 0 0 1 3 2 6
Nghost:    713.883 ave 3118 max 0 min
Histogram: 37 0 6 3 2 0 0 4 4 4
Neighs:    23846.8 ave 136611 max 0 min
Histogram: 45 3 0 0 0 1 2 1 5 3

Total # of neighbors = 1430806
Ave neighs/atom = 69.9455
Neighbor list builds = 158
Dangerous builds = 0

print		"run finished for a value $a"
run finished for a value 9

#undump	relax
#uncompute myT
unfix	freeze
unfix	1
unfix	2
group	myG	clear
group	subG 	clear
variable dxx	delete
variable dyy	delete
variable dzz  	delete

next a
jump in.CuZr_deposit l1

variable	diff equal ($(lx)-v_top)
variable	diff equal (99.972561512258494076-v_top)
if "v_diff<=20" then "change_box all z delta 0 10"
change_box all z delta 0 10
  orthogonal box = (-49.9863 -49.9863 -19.9973) to (49.9863 49.9863 209.997)

group		myG  id <= 0
0 atoms in group myG
read_data	myNanoP.txt add append group myG
  orthogonal box = (-49.9863 -49.9863 -19.9973) to (49.9863 49.9863 209.997)
  3 by 4 by 5 MPI processor grid
  reading atoms ...
  884 atoms
  reading velocities ...
  884 velocities
  read_data CPU = 0.028255 secs
group		subG subtract all myG
20456 atoms in group subG

variable	dxx   equal  "v_dispX-0.5*v_BoxL"
variable	dyy   equal  "v_dispY-0.5*v_BoxL"
variable	dzz   equal  "v_a*3+50"
print		"${dzz}"
80

displace_atoms myG move ${dxx} ${dyy} ${dzz} units box	#make it uniform
displace_atoms myG move 37.8929624031119 ${dyy} ${dzz} units box	
displace_atoms myG move 37.8929624031119 -40.3845871679558 ${dzz} units box	
displace_atoms myG move 37.8929624031119 -40.3845871679558 80 units box	
#displace_atoms myG move 0 0  50 units box		#make it uniform
reset_ids
Resetting atom IDs ...

variable	E equal 50*(1.6e-19)				#units: eV
variable	mass equal (mass(myG))*(1.6605e-27)
variable        cvel equal (-1)*(sqrt(2*${E}/${mass}))/100	#metal units: vel = 1 Angstr/ps = 100 m/s
variable        cvel equal (-1)*(sqrt(2*8e-18/${mass}))/100	
variable        cvel equal (-1)*(sqrt(2*8e-18/1.08262308510001e-22))/100	
velocity        myG create 300 74657362 mom yes rot yes
velocity        myG set 0 0 ${cvel} units box
velocity        myG set 0 0 -3.84433609775094 units box

velocity        subG create 300 74657362 mom yes rot yes
set             group bottomLayer vz  0
  1261 settings made for vz
fix             freeze bottomLayer setforce NULL NULL 0.0

#compute myT 	subG temp
#thermo_modify 	temp myT

fix            1 all nve
fix            2 bottomLayer temp/berendsen 200.0 200.0 0.1
run            20000
Per MPI rank memory allocation (min/avg/max) = 0.7263 | 3.27 | 5.308 Mbytes
Step PotEng Press Pxx Pyy Pzz Lx Ly Lz Volume Temp 
  180000   -94639.474   -811.64718   -1067.7301   -1157.3112   -209.90025    99.972562    99.972562    229.99451    2298683.2    299.94178 
  181000   -94713.285   -494.30398   -801.29617   -812.76945     131.1537    99.972562    99.972562    229.99451    2298683.2    326.30066 
  182000   -94717.743   -640.59067   -980.87221   -945.85322    4.9534299    99.972562    99.972562    229.99451    2298683.2    327.35497 
  183000   -94719.443   -711.14694    -1035.551   -1031.1775   -66.712283    99.972562    99.972562    229.99451    2298683.2    325.83154 
  184000    -94724.47   -670.54621   -1022.4875   -974.82647   -14.324702    99.972562    99.972562    229.99451    2298683.2      325.381 
  185000   -94731.033   -595.75226   -916.04294   -890.87815    19.664313    99.972562    99.972562    229.99451    2298683.2    326.25128 
  186000   -94741.447   -537.79118   -922.31848   -796.47526     105.4202    99.972562    99.972562    229.99451    2298683.2    327.47162 
  187000   -94744.344   -637.56872   -982.35439     -894.509   -35.842761    99.972562    99.972562    229.99451    2298683.2    326.42481 
  188000    -94747.92    -626.3638   -1010.8523    -860.2514   -7.9877553    99.972562    99.972562    229.99451    2298683.2    325.50731 
  189000   -94765.748   -659.71637   -950.27379   -937.38698   -91.488336    99.972562    99.972562    229.99451    2298683.2    330.47192 
  190000   -94771.591   -624.64553   -1005.2152   -922.24588     53.52451    99.972562    99.972562    229.99451    2298683.2    331.53885 
  191000   -94769.129   -381.60937   -792.94267   -656.01185    304.12641    99.972562    99.972562    229.99451    2298683.2    329.31224 
  192000   -94772.576   -346.80264   -637.43381   -643.04326    240.06915    99.972562    99.972562    229.99451    2298683.2    328.36096 
  193000   -94775.008   -625.32902   -880.34968   -923.29335    -72.34403    99.972562    99.972562    229.99451    2298683.2    327.54098 
  194000   -94788.025   -602.69863   -921.96663   -814.37732   -71.751927    99.972562    99.972562    229.99451    2298683.2    330.50101 
  195000   -94789.716   -637.80369   -964.67186   -889.91642   -58.822776    99.972562    99.972562    229.99451    2298683.2    329.90088 
  196000   -94794.434   -651.87751   -976.34873   -902.72132   -76.562472    99.972562    99.972562    229.99451    2298683.2    330.59334 
  197000   -94807.734   -647.45377   -943.41589    -861.7058   -137.23963    99.972562    99.972562    229.99451    2298683.2    332.53001 
  198000   -94806.408    -636.0679   -928.13274     -877.115   -102.95596    99.972562    99.972562    229.99451    2298683.2    329.75351 
  199000   -94814.477   -645.16504   -952.25774   -866.76559   -116.47179    99.972562    99.972562    229.99451    2298683.2    330.48849 
  200000   -94822.852   -578.49767    -877.6295   -823.85259   -34.010914    99.972562    99.972562    229.99451    2298683.2    332.70004 
Loop time of 523.359 on 60 procs for 20000 steps with 21340 atoms

Performance: 3.302 ns/day, 7.269 hours/ns, 38.215 timesteps/s
58.0% CPU use with 60 MPI tasks x no OpenMP threads

MPI task timing breakdown:
Section |  min time  |  avg time  |  max time  |%varavg| %total
---------------------------------------------------------------
Pair    | 0.0079365  | 109.74     | 334.28     |1194.1 | 20.97
Neigh   | 0.00061941 | 0.22202    | 1.3494     |  88.1 |  0.04
Comm    | 0.41552    | 83.178     | 247.65     |1049.3 | 15.89
Output  | 0.62493    | 0.73071    | 0.83708    |   7.3 |  0.14
Modify  | 10.412     | 324.37     | 517.79     |1184.4 | 61.98
Other   |            | 5.114      |            |       |  0.98

Nlocal:    355.667 ave 1857 max 0 min
Histogram: 43 4 0 1 0 1 1 1 3 6
Nghost:    728.2 ave 3117 max 0 min
Histogram: 37 0 5 5 1 0 0 3 4 5
Neighs:    24895.5 ave 141101 max 0 min
Histogram: 46 1 1 0 0 1 2 1 5 3

Total # of neighbors = 1493733
Ave neighs/atom = 69.9969
Neighbor list builds = 151
Dangerous builds = 0

print		"run finished for a value $a"
run finished for a value 10

#undump	relax
#uncompute myT
unfix	freeze
unfix	1
unfix	2
group	myG	clear
group	subG 	clear
variable dxx	delete
variable dyy	delete
variable dzz  	delete

next a
jump in.CuZr_deposit l1

variable	diff equal ($(lx)-v_top)
variable	diff equal (99.972561512258494076-v_top)
if "v_diff<=20" then "change_box all z delta 0 10"
change_box all z delta 0 10
  orthogonal box = (-49.9863 -49.9863 -19.9973) to (49.9863 49.9863 219.997)

group		myG  id <= 0
0 atoms in group myG
read_data	myNanoP.txt add append group myG
  orthogonal box = (-49.9863 -49.9863 -19.9973) to (49.9863 49.9863 219.997)
  3 by 4 by 5 MPI processor grid
  reading atoms ...
  884 atoms
  reading velocities ...
  884 velocities
  read_data CPU = 0.0291789 secs
group		subG subtract all myG
21340 atoms in group subG

variable	dxx   equal  "v_dispX-0.5*v_BoxL"
variable	dyy   equal  "v_dispY-0.5*v_BoxL"
variable	dzz   equal  "v_a*3+50"
print		"${dzz}"
83

displace_atoms myG move ${dxx} ${dyy} ${dzz} units box	#make it uniform
displace_atoms myG move -32.3734540149379 ${dyy} ${dzz} units box	
displace_atoms myG move -32.3734540149379 -18.692161358558 ${dzz} units box	
displace_atoms myG move -32.3734540149379 -18.692161358558 83 units box	
#displace_atoms myG move 0 0  50 units box		#make it uniform
reset_ids
Resetting atom IDs ...

variable	E equal 50*(1.6e-19)				#units: eV
variable	mass equal (mass(myG))*(1.6605e-27)
variable        cvel equal (-1)*(sqrt(2*${E}/${mass}))/100	#metal units: vel = 1 Angstr/ps = 100 m/s
variable        cvel equal (-1)*(sqrt(2*8e-18/${mass}))/100	
variable        cvel equal (-1)*(sqrt(2*8e-18/1.0826230851e-22))/100	
velocity        myG create 300 74657362 mom yes rot yes
velocity        myG set 0 0 ${cvel} units box
velocity        myG set 0 0 -3.84433609775096 units box

velocity        subG create 300 74657362 mom yes rot yes
set             group bottomLayer vz  0
  1261 settings made for vz
fix             freeze bottomLayer setforce NULL NULL 0.0

#compute myT 	subG temp
#thermo_modify 	temp myT

fix            1 all nve
fix            2 bottomLayer temp/berendsen 200.0 200.0 0.1
run            20000
Per MPI rank memory allocation (min/avg/max) = 0.7359 | 3.278 | 5.317 Mbytes
Step PotEng Press Pxx Pyy Pzz Lx Ly Lz Volume Temp 
  200000   -98615.917   -787.07227   -1095.7938   -1051.5998   -213.82329    99.972562    99.972562    239.99451    2398628.3    299.74997 
  201000   -98688.131   -508.45766   -809.92556   -705.88967   -9.5577351    99.972562    99.972562    239.99451    2398628.3    324.36124 
  202000   -98691.227   -678.86832   -1013.4501   -917.27877    -105.8761    99.972562    99.972562    239.99451    2398628.3    324.60219 
  203000   -98702.285   -504.38379   -870.62008   -753.88418    111.35289    99.972562    99.972562    239.99451    2398628.3    327.16476 
  204000    -98697.91   -565.52914   -889.31128   -887.37891    80.102767    99.972562    99.972562    239.99451    2398628.3    324.71508 
  205000   -98699.145   -696.14201   -1013.5518    -941.2724   -133.60187    99.972562    99.972562    239.99451    2398628.3    324.29991 
  206000    -98697.25   -590.45806   -905.91738   -887.88875    22.431972    99.972562    99.972562    239.99451    2398628.3    321.57872 
  207000   -98704.749   -656.22971   -954.74008   -946.10962   -67.839444    99.972562    99.972562    239.99451    2398628.3    323.12174 
  208000   -98709.432   -541.18352   -819.43053   -832.43989    28.319865    99.972562    99.972562    239.99451    2398628.3    323.76466 
  209000   -98722.093   -553.69622   -862.49548   -829.53227    30.939093    99.972562    99.972562    239.99451    2398628.3     327.5975 
  210000     -98739.7   -648.95736   -971.49938   -866.78585   -108.58686    99.972562    99.972562    239.99451    2398628.3    332.73943 
  211000   -98745.018   -586.41842   -896.81655   -868.78254    6.3438284    99.972562    99.972562    239.99451    2398628.3    333.31019 
  212000    -98755.32   -417.36568   -779.51862   -731.20697    258.62853    99.972562    99.972562    239.99451    2398628.3    334.20562 
  213000   -98749.991   -331.01206   -709.12399   -593.43336    309.52117    99.972562    99.972562    239.99451    2398628.3    331.48308 
  214000   -98761.605    -462.5093   -790.06932     -711.065    113.60644    99.972562    99.972562    239.99451    2398628.3    333.35048 
  215000    -98767.59   -712.12148    -928.0693   -1003.1675   -205.12766    99.972562    99.972562    239.99451    2398628.3    333.11148 
  216000    -98773.37   -628.25229   -886.00088   -902.43204   -96.323946    99.972562    99.972562    239.99451    2398628.3    333.65984 
  217000   -98777.907   -703.30089   -1013.0367   -884.98636   -211.87957    99.972562    99.972562    239.99451    2398628.3     334.0994 
  218000   -98796.166   -492.63263   -730.01057   -753.78137    5.8940465    99.972562    99.972562    239.99451    2398628.3    338.46307 
  219000   -98787.257   -521.48773   -826.10802   -755.36131    17.006147    99.972562    99.972562    239.99451    2398628.3    334.54404 
  220000   -98797.505   -577.52398    -764.5241   -843.41928   -124.62857    99.972562    99.972562    239.99451    2398628.3    335.63789 
Loop time of 540.634 on 60 procs for 20000 steps with 22224 atoms

Performance: 3.196 ns/day, 7.509 hours/ns, 36.994 timesteps/s
58.1% CPU use with 60 MPI tasks x no OpenMP threads

MPI task timing breakdown:
Section |  min time  |  avg time  |  max time  |%varavg| %total
---------------------------------------------------------------
Pair    | 0.0088649  | 112.64     | 343.68     |1212.4 | 20.83
Neigh   | 0.00066614 | 0.23794    | 1.4356     |  90.5 |  0.04
Comm    | 0.47335    | 85.189     | 252.94     |1056.5 | 15.76
Output  | 0.64433    | 0.75511    | 0.86262    |   7.4 |  0.14
Modify  | 9.5709     | 336.45     | 535.02     |1193.8 | 62.23
Other   |            | 5.359      |            |       |  0.99

Nlocal:    370.4 ave 1974 max 0 min
Histogram: 43 3 1 1 0 1 2 1 5 3
Nghost:    749.6 ave 3563 max 0 min
Histogram: 37 2 6 2 1 0 2 4 5 1
Neighs:    26003.5 ave 153981 max 0 min
Histogram: 46 1 1 0 0 1 3 1 5 2

Total # of neighbors = 1560211
Ave neighs/atom = 70.2039
Neighbor list builds = 155
Dangerous builds = 0

print		"run finished for a value $a"
run finished for a value 11

#undump	relax
#uncompute myT
unfix	freeze
unfix	1
unfix	2
group	myG	clear
group	subG 	clear
variable dxx	delete
variable dyy	delete
variable dzz  	delete

next a
jump in.CuZr_deposit l1

variable	diff equal ($(lx)-v_top)
variable	diff equal (99.972561512258494076-v_top)
if "v_diff<=20" then "change_box all z delta 0 10"
change_box all z delta 0 10
  orthogonal box = (-49.9863 -49.9863 -19.9973) to (49.9863 49.9863 229.997)

group		myG  id <= 0
0 atoms in group myG
read_data	myNanoP.txt add append group myG
  orthogonal box = (-49.9863 -49.9863 -19.9973) to (49.9863 49.9863 229.997)
  2 by 3 by 10 MPI processor grid
  reading atoms ...
  884 atoms
  reading velocities ...
  884 velocities
  read_data CPU = 0.0345509 secs
group		subG subtract all myG
22224 atoms in group subG

variable	dxx   equal  "v_dispX-0.5*v_BoxL"
variable	dyy   equal  "v_dispY-0.5*v_BoxL"
variable	dzz   equal  "v_a*3+50"
print		"${dzz}"
86

displace_atoms myG move ${dxx} ${dyy} ${dzz} units box	#make it uniform
displace_atoms myG move 38.0934054935597 ${dyy} ${dzz} units box	
displace_atoms myG move 38.0934054935597 29.0219821407109 ${dzz} units box	
displace_atoms myG move 38.0934054935597 29.0219821407109 86 units box	
#displace_atoms myG move 0 0  50 units box		#make it uniform
reset_ids
Resetting atom IDs ...

variable	E equal 50*(1.6e-19)				#units: eV
variable	mass equal (mass(myG))*(1.6605e-27)
variable        cvel equal (-1)*(sqrt(2*${E}/${mass}))/100	#metal units: vel = 1 Angstr/ps = 100 m/s
variable        cvel equal (-1)*(sqrt(2*8e-18/${mass}))/100	
variable        cvel equal (-1)*(sqrt(2*8e-18/1.08262308510001e-22))/100	
velocity        myG create 300 74657362 mom yes rot yes
velocity        myG set 0 0 ${cvel} units box
velocity        myG set 0 0 -3.84433609775094 units box

velocity        subG create 300 74657362 mom yes rot yes
set             group bottomLayer vz  0
  1261 settings made for vz
fix             freeze bottomLayer setforce NULL NULL 0.0

#compute myT 	subG temp
#thermo_modify 	temp myT

fix            1 all nve
fix            2 bottomLayer temp/berendsen 200.0 200.0 0.1
run            20000
Per MPI rank memory allocation (min/avg/max) = 0.7471 | 3.498 | 5.469 Mbytes
Step PotEng Press Pxx Pyy Pzz Lx Ly Lz Volume Temp 
  220000   -102590.57   -783.20167   -988.89876   -1055.4345    -305.2718    99.972562    99.972562    249.99451    2498573.4    299.60106 
  221000    -102677.3    -546.0316   -757.98465   -856.73223   -23.377906    99.972562    99.972562    249.99451    2498573.4      327.895 
  222000   -102682.15   -491.46827   -727.79549   -832.84946    86.240138    99.972562    99.972562    249.99451    2498573.4    328.11595 
  223000   -102690.63   -567.12127   -808.37081   -874.56572   -18.427286    99.972562    99.972562    249.99451    2498573.4    330.60378 
  224000   -102686.59   -623.84608   -861.45922   -922.33522   -87.743803    99.972562    99.972562    249.99451    2498573.4    328.13378 
  225000   -102692.55   -495.73067    -759.7656   -820.69463    93.268212    99.972562    99.972562    249.99451    2498573.4     328.2791 
  226000   -102691.19   -522.36772   -794.81774   -839.37441    67.088993    99.972562    99.972562    249.99451    2498573.4    327.12237 
  227000   -102697.33   -601.43283   -841.23523   -876.30458    -86.75868    99.972562    99.972562    249.99451    2498573.4    328.06218 
  228000   -102704.33   -584.92311    -882.4004   -831.09442   -41.274501    99.972562    99.972562    249.99451    2498573.4    328.71081 
  229000   -102710.37    -558.8282    -867.8473   -853.56806    44.930767    99.972562    99.972562    249.99451    2498573.4    329.76159 
  230000   -102714.18   -585.89052   -829.87605   -853.18449   -74.611028    99.972562    99.972562    249.99451    2498573.4    329.85972 
  231000   -102710.91   -624.60502   -908.97975   -934.37474   -30.460555    99.972562    99.972562    249.99451    2498573.4     327.3762 
  232000   -102728.18   -554.05528   -813.77775   -846.25624   -2.1318623    99.972562    99.972562    249.99451    2498573.4    331.65809 
  233000   -102732.78   -592.86499   -788.25553   -896.04224   -94.297203    99.972562    99.972562    249.99451    2498573.4    332.12217 
  234000   -102756.16   -559.31536   -843.50296    -879.2093    44.766166    99.972562    99.972562    249.99451    2498573.4    339.51002 
  235000   -102776.94   -338.81492   -593.59979   -612.23387    189.38891    99.972562    99.972562    249.99451    2498573.4    345.19744 
  236000   -102783.67   -127.94763   -341.41663   -375.96127    333.53501    99.972562    99.972562    249.99451    2498573.4    347.90242 
  237000   -102783.74   -346.87855   -479.13867   -665.27702    103.78006    99.972562    99.972562    249.99451    2498573.4    346.17476 
  238000   -102797.38    -748.5357   -916.04943    -978.3901   -351.16759    99.972562    99.972562    249.99451    2498573.4     349.6898 
  239000   -102805.14   -699.29237   -878.00174   -1019.8591   -200.01624    99.972562    99.972562    249.99451    2498573.4    348.88789 
  240000    -102826.8   -486.64545   -703.00419   -855.69315    98.760985    99.972562    99.972562    249.99451    2498573.4    352.28762 
Loop time of 566.017 on 60 procs for 20000 steps with 23108 atoms

Performance: 3.053 ns/day, 7.861 hours/ns, 35.335 timesteps/s
57.8% CPU use with 60 MPI tasks x no OpenMP threads

MPI task timing breakdown:
Section |  min time  |  avg time  |  max time  |%varavg| %total
---------------------------------------------------------------
Pair    | 0.0082998  | 108.82     | 360.02     |1304.9 | 19.23
Neigh   | 0.00064325 | 0.26524    | 1.6965     |  96.2 |  0.05
Comm    | 0.21943    | 80.088     | 288.45     |1159.0 | 14.15
Output  | 0.66849    | 0.78536    | 0.89235    |   7.2 |  0.14
Modify  | 6.2653     | 370.54     | 559.63     |1220.4 | 65.47
Other   |            | 5.51       |            |       |  0.97

Nlocal:    385.133 ave 2290 max 0 min
Histogram: 44 3 1 0 0 0 6 3 2 1
Nghost:    929.45 ave 4877 max 0 min
Histogram: 42 0 3 3 0 0 6 0 2 4
Neighs:    27229 ave 164724 max 0 min
Histogram: 44 4 0 0 0 0 1 9 1 1

Total # of neighbors = 1633741
Ave neighs/atom = 70.7002
Neighbor list builds = 163
Dangerous builds = 0

print		"run finished for a value $a"
run finished for a value 12

#undump	relax
#uncompute myT
unfix	freeze
unfix	1
unfix	2
group	myG	clear
group	subG 	clear
variable dxx	delete
variable dyy	delete
variable dzz  	delete

next a
jump in.CuZr_deposit l1

variable	diff equal ($(lx)-v_top)
variable	diff equal (99.972561512258494076-v_top)
if "v_diff<=20" then "change_box all z delta 0 10"
change_box all z delta 0 10
  orthogonal box = (-49.9863 -49.9863 -19.9973) to (49.9863 49.9863 239.997)

group		myG  id <= 0
0 atoms in group myG
read_data	myNanoP.txt add append group myG
  orthogonal box = (-49.9863 -49.9863 -19.9973) to (49.9863 49.9863 239.997)
  2 by 3 by 10 MPI processor grid
  reading atoms ...
  884 atoms
  reading velocities ...
  884 velocities
  read_data CPU = 0.0280521 secs
group		subG subtract all myG
23108 atoms in group subG

variable	dxx   equal  "v_dispX-0.5*v_BoxL"
variable	dyy   equal  "v_dispY-0.5*v_BoxL"
variable	dzz   equal  "v_a*3+50"
print		"${dzz}"
89

displace_atoms myG move ${dxx} ${dyy} ${dzz} units box	#make it uniform
displace_atoms myG move 46.9412774170356 ${dyy} ${dzz} units box	
displace_atoms myG move 46.9412774170356 -36.6098715863644 ${dzz} units box	
displace_atoms myG move 46.9412774170356 -36.6098715863644 89 units box	
#displace_atoms myG move 0 0  50 units box		#make it uniform
reset_ids
Resetting atom IDs ...

variable	E equal 50*(1.6e-19)				#units: eV
variable	mass equal (mass(myG))*(1.6605e-27)
variable        cvel equal (-1)*(sqrt(2*${E}/${mass}))/100	#metal units: vel = 1 Angstr/ps = 100 m/s
variable        cvel equal (-1)*(sqrt(2*8e-18/${mass}))/100	
[...]
Loop time of 891.967 on 60 procs for 20000 steps with 52280 atoms

Performance: 1.937 ns/day, 12.388 hours/ns, 22.422 timesteps/s
58.2% CPU use with 60 MPI tasks x no OpenMP threads

MPI task timing breakdown:
Section |  min time  |  avg time  |  max time  |%varavg| %total
---------------------------------------------------------------
Pair    | 0.007705   | 156.95     | 699.46     |2019.7 | 17.60
Neigh   | 0.00090885 | 0.63533    | 3.7525     | 152.6 |  0.07
Comm    | 0.12283    | 68.524     | 407.23     |1424.2 |  7.68
Output  | 1.2449     | 1.4283     | 1.6036     |   8.8 |  0.16
Modify  | 18.419     | 642.45     | 880.21     |1388.8 | 72.03
Other   |            | 21.98      |            |       |  2.46

Nlocal:    871.333 ave 4904 max 0 min
Histogram: 44 2 1 0 1 2 1 0 6 3
Nghost:    1347.3 ave 7377 max 0 min
Histogram: 44 0 2 2 0 0 2 5 1 4
Neighs:    62766.6 ave 364893 max 0 min
Histogram: 45 2 0 1 2 0 1 2 3 4

Total # of neighbors = 3765995
Ave neighs/atom = 72.0351
Neighbor list builds = 168
Dangerous builds = 0

print		"run finished for a value $a"
run finished for a value 45

#undump	relax
#uncompute myT
unfix	freeze
unfix	1
unfix	2
group	myG	clear
group	subG 	clear
variable dxx	delete
variable dyy	delete
variable dzz  	delete

next a
jump in.CuZr_deposit l1

variable	diff equal ($(lx)-v_top)
variable	diff equal (99.972561512258494076-v_top)
if "v_diff<=20" then "change_box all z delta 0 10"
change_box all z delta 0 10
  orthogonal box = (-49.9863 -49.9863 -19.9973) to (49.9863 49.9863 569.997)

group		myG  id <= 0
0 atoms in group myG
read_data	myNanoP.txt add append group myG
  orthogonal box = (-49.9863 -49.9863 -19.9973) to (49.9863 49.9863 569.997)
  2 by 2 by 15 MPI processor grid
  reading atoms ...
  884 atoms
  reading velocities ...
  884 velocities
  read_data CPU = 0.0297461 secs
group		subG subtract all myG
52280 atoms in group subG

variable	dxx   equal  "v_dispX-0.5*v_BoxL"
variable	dyy   equal  "v_dispY-0.5*v_BoxL"
variable	dzz   equal  "v_a*3+50"
print		"${dzz}"
188

displace_atoms myG move ${dxx} ${dyy} ${dzz} units box	#make it uniform
displace_atoms myG move 41.2294835753372 ${dyy} ${dzz} units box	
displace_atoms myG move 41.2294835753372 40.0465487566944 ${dzz} units box	
displace_atoms myG move 41.2294835753372 40.0465487566944 188 units box	
#displace_atoms myG move 0 0  50 units box		#make it uniform
reset_ids
Resetting atom IDs ...

variable	E equal 50*(1.6e-19)				#units: eV
variable	mass equal (mass(myG))*(1.6605e-27)
variable        cvel equal (-1)*(sqrt(2*${E}/${mass}))/100	#metal units: vel = 1 Angstr/ps = 100 m/s
variable        cvel equal (-1)*(sqrt(2*8e-18/${mass}))/100	
variable        cvel equal (-1)*(sqrt(2*8e-18/1.08262308510001e-22))/100	
velocity        myG create 300 74657362 mom yes rot yes
velocity        myG set 0 0 ${cvel} units box
velocity        myG set 0 0 -3.84433609775094 units box

velocity        subG create 300 74657362 mom yes rot yes
set             group bottomLayer vz  0
  1261 settings made for vz
fix             freeze bottomLayer setforce NULL NULL 0.0

#compute myT 	subG temp
#thermo_modify 	temp myT

fix            1 all nve
fix            2 bottomLayer temp/berendsen 200.0 200.0 0.1
run            20000
Per MPI rank memory allocation (min/avg/max) = 1.077 | 4.689 | 6.585 Mbytes
Step PotEng Press Pxx Pyy Pzz Lx Ly Lz Volume Temp 
  900000   -238066.87   -521.69583   -793.84597   -700.19167   -71.049837    99.972562    99.972562    589.99451    5896707.9    299.99369 
  901000   -238188.29   -333.28998   -552.11711   -493.20336    45.450545    99.972562    99.972562    589.99451    5896707.9    318.34441 
  902000   -238213.25   -390.11611   -607.13561   -560.01096   -3.2017546    99.972562    99.972562    589.99451    5896707.9    322.12765 
  903000   -238218.62   -417.65081   -576.47236   -578.38438   -98.095688    99.972562    99.972562    589.99451    5896707.9    323.45151 
  904000   -238229.18   -448.50526   -626.57272   -634.88348   -84.059581    99.972562    99.972562    589.99451    5896707.9    325.12256 
  905000   -238231.05   -393.37766   -614.23916   -568.46288    2.5690536    99.972562    99.972562    589.99451    5896707.9    324.99798 
  906000   -238246.59   -438.57886    -621.9057   -584.35397   -109.47691    99.972562    99.972562    589.99451    5896707.9    327.32053 
  907000   -238247.39   -414.75258   -639.54191   -554.20093   -50.514906    99.972562    99.972562    589.99451    5896707.9    327.66095 
  908000    -238248.9   -390.06944   -612.15312   -513.65264   -44.402569    99.972562    99.972562    589.99451    5896707.9    327.37474 
  909000   -238246.18   -366.06655   -583.10322   -538.24678    23.150337    99.972562    99.972562    589.99451    5896707.9    326.90446 
  910000   -238254.57   -344.08415   -548.25834   -503.54974    19.555621    99.972562    99.972562    589.99451    5896707.9    328.12048 
  911000   -238246.92   -357.16207   -592.52106   -515.89821    36.933065    99.972562    99.972562    589.99451    5896707.9    327.19908 
  912000   -238260.82   -308.53385   -505.08957   -512.83914    92.327144    99.972562    99.972562    589.99451    5896707.9    329.35489 
  913000   -238256.99   -422.16095   -614.36427   -605.14009   -46.978499    99.972562    99.972562    589.99451    5896707.9    328.68477 
  914000   -238252.85   -402.37925   -620.38272   -563.71554   -23.039467    99.972562    99.972562    589.99451    5896707.9    328.00634 
  915000   -238249.39   -430.11901   -641.87216   -594.73079   -53.754079    99.972562    99.972562    589.99451    5896707.9    327.85557 
  916000   -238252.95    -424.8763   -667.74201   -581.89707   -24.989816    99.972562    99.972562    589.99451    5896707.9    328.21338 
  917000   -238258.15   -398.34997   -623.15772    -597.8221    25.929907    99.972562    99.972562    589.99451    5896707.9    328.97067 
  918000   -238276.54   -392.27178   -596.83278   -591.78485    11.802295    99.972562    99.972562    589.99451    5896707.9    331.37651 
  919000   -238290.47   -366.64955   -574.56143   -540.43195    15.044741    99.972562    99.972562    589.99451    5896707.9    333.45235 
  920000   -238285.59   -322.80482   -499.43055   -497.61903    28.635128    99.972562    99.972562    589.99451    5896707.9    332.62483 
Loop time of 891.752 on 60 procs for 20000 steps with 53164 atoms

Performance: 1.938 ns/day, 12.385 hours/ns, 22.428 timesteps/s
58.4% CPU use with 60 MPI tasks x no OpenMP threads

MPI task timing breakdown:
Section |  min time  |  avg time  |  max time  |%varavg| %total
---------------------------------------------------------------
Pair    | 0.0074849  | 166.25     | 705.36     |1962.3 | 18.64
Neigh   | 0.00086284 | 0.61441    | 3.5448     | 150.2 |  0.07
Comm    | 0.11612    | 72.47      | 408.7      |1366.7 |  8.13
Output  | 1.147      | 1.3276     | 1.5102     |   9.2 |  0.15
Modify  | 16.278     | 628.27     | 880.32     |1394.4 | 70.45
Other   |            | 22.82      |            |       |  2.56

Nlocal:    886.067 ave 4977 max 0 min
Histogram: 44 3 0 0 1 2 0 1 5 4
Nghost:    1359.55 ave 7373 max 0 min
Histogram: 44 0 2 2 0 0 2 5 1 4
Neighs:    63852 ave 369671 max 0 min
Histogram: 46 1 0 0 3 0 0 3 3 4

Total # of neighbors = 3831119
Ave neighs/atom = 72.0623
Neighbor list builds = 158
Dangerous builds = 0

print		"run finished for a value $a"
run finished for a value 46

#undump	relax
#uncompute myT
unfix	freeze
unfix	1
unfix	2
group	myG	clear
group	subG 	clear
variable dxx	delete
variable dyy	delete
variable dzz  	delete

next a
jump in.CuZr_deposit l1

variable	diff equal ($(lx)-v_top)
variable	diff equal (99.972561512258494076-v_top)
if "v_diff<=20" then "change_box all z delta 0 10"
change_box all z delta 0 10
  orthogonal box = (-49.9863 -49.9863 -19.9973) to (49.9863 49.9863 579.997)

group		myG  id <= 0
0 atoms in group myG
read_data	myNanoP.txt add append group myG
  orthogonal box = (-49.9863 -49.9863 -19.9973) to (49.9863 49.9863 579.997)
  2 by 2 by 15 MPI processor grid
  reading atoms ...
  884 atoms
  reading velocities ...
  884 velocities
  read_data CPU = 0.0301359 secs
group		subG subtract all myG
53164 atoms in group subG

variable	dxx   equal  "v_dispX-0.5*v_BoxL"
variable	dyy   equal  "v_dispY-0.5*v_BoxL"
variable	dzz   equal  "v_a*3+50"
print		"${dzz}"
191

displace_atoms myG move ${dxx} ${dyy} ${dzz} units box	#make it uniform
displace_atoms myG move -7.95807573945735 ${dyy} ${dzz} units box	
displace_atoms myG move -7.95807573945735 0.663694375827056 ${dzz} units box	
displace_atoms myG move -7.95807573945735 0.663694375827056 191 units box	
#displace_atoms myG move 0 0  50 units box		#make it uniform
reset_ids
Resetting atom IDs ...

variable	E equal 50*(1.6e-19)				#units: eV
variable	mass equal (mass(myG))*(1.6605e-27)
variable        cvel equal (-1)*(sqrt(2*${E}/${mass}))/100	#metal units: vel = 1 Angstr/ps = 100 m/s
variable        cvel equal (-1)*(sqrt(2*8e-18/${mass}))/100	
variable        cvel equal (-1)*(sqrt(2*8e-18/1.0826230851e-22))/100	
velocity        myG create 300 74657362 mom yes rot yes
velocity        myG set 0 0 ${cvel} units box
velocity        myG set 0 0 -3.84433609775096 units box

velocity        subG create 300 74657362 mom yes rot yes
set             group bottomLayer vz  0
  1261 settings made for vz
fix             freeze bottomLayer setforce NULL NULL 0.0

#compute myT 	subG temp
#thermo_modify 	temp myT

fix            1 all nve
fix            2 bottomLayer temp/berendsen 200.0 200.0 0.1
run            20000
Per MPI rank memory allocation (min/avg/max) = 1.083 | 4.695 | 6.59 Mbytes
Step PotEng Press Pxx Pyy Pzz Lx Ly Lz Volume Temp 
  920000   -242078.66   -434.24777   -610.52798   -608.36791   -83.847434    99.972562    99.972562    599.99451      5996653    299.98942 
  921000   -242206.08    -358.7712    -525.9363   -583.95507    33.577781    99.972562    99.972562    599.99451      5996653    318.38809 
  922000   -242204.35    -435.1103   -601.92179   -636.31482   -67.094301    99.972562    99.972562    599.99451      5996653     317.7192 
  923000   -242222.17   -396.26509   -609.02814   -556.19715   -23.569975    99.972562    99.972562    599.99451      5996653    319.75689 
  924000   -242226.48   -395.02491   -555.54477   -577.86207   -51.667886    99.972562    99.972562    599.99451      5996653    320.32842 
  925000   -242237.23    -398.1171   -591.47707   -562.15569   -40.718548    99.972562    99.972562    599.99451      5996653    321.38162 
  926000   -242240.81   -405.13792   -584.56264   -570.07124   -60.779885    99.972562    99.972562    599.99451      5996653    321.79657 
  927000    -242251.2   -393.91537   -587.70628   -544.82158    -49.21826    99.972562    99.972562    599.99451      5996653    323.20915 
  928000   -242251.07    -408.7786   -586.79289   -579.87422   -59.668683    99.972562    99.972562    599.99451      5996653    323.16099 
  929000   -242264.63   -374.08143   -533.80437   -589.14785   0.70792967    99.972562    99.972562    599.99451      5996653    325.35823 
  930000   -242257.24   -350.25515   -540.31818    -559.5578    49.110528    99.972562    99.972562    599.99451      5996653    324.46828 
  931000   -242271.11   -389.12858   -576.26171   -579.37552   -11.748498    99.972562    99.972562    599.99451      5996653    326.49767 
  932000   -242272.39   -374.93264   -544.42112   -593.33831    12.961503    99.972562    99.972562    599.99451      5996653    326.42088 
  933000   -242278.88   -306.75876    -489.6767   -529.41431    98.814728    99.972562    99.972562    599.99451      5996653    326.96636 
  934000   -242285.65   -318.53033   -500.87485   -559.56961    104.85347    99.972562    99.972562    599.99451      5996653    327.63712 
  935000   -242287.69   -336.03236   -533.76312   -576.65663    102.32267    99.972562    99.972562    599.99451      5996653    327.66358 
  936000    -242293.5   -286.60488    -484.6849    -501.9689    126.83917    99.972562    99.972562    599.99451      5996653    328.57348 
  937000   -242284.13    -409.1882   -574.36294   -639.78147   -13.420199    99.972562    99.972562    599.99451      5996653    326.69687 
  938000   -242292.54   -373.16035   -527.80033   -590.22953   -1.4512067    99.972562    99.972562    599.99451      5996653    327.76812 
  939000   -242317.63   -423.23487   -568.10746    -628.0812   -73.515962    99.972562    99.972562    599.99451      5996653      331.552 
  940000   -242307.07   -470.44286   -669.68753   -642.42742   -99.213648    99.972562    99.972562    599.99451      5996653    330.09489 
Loop time of 919.305 on 60 procs for 20000 steps with 54048 atoms

Performance: 1.880 ns/day, 12.768 hours/ns, 21.756 timesteps/s
58.2% CPU use with 60 MPI tasks x no OpenMP threads

MPI task timing breakdown:
Section |  min time  |  avg time  |  max time  |%varavg| %total
---------------------------------------------------------------
Pair    | 0.0075493  | 169.16     | 731.38     |1988.7 | 18.40
Neigh   | 0.00082088 | 0.60777    | 3.8212     | 150.7 |  0.07
Comm    | 0.12214    | 74.428     | 411.77     |1374.4 |  8.10
Output  | 1.2864     | 1.474      | 1.6413     |   8.6 |  0.16
Modify  | 16.73      | 646.69     | 906.63     |1401.4 | 70.35
Other   |            | 26.95      |            |       |  2.93

Nlocal:    900.8 ave 5045 max 0 min
Histogram: 44 3 0 0 2 1 0 0 7 3
Nghost:    1394.6 ave 7303 max 0 min
Histogram: 44 0 2 2 0 0 1 5 2 4
Neighs:    64896.1 ave 375441 max 0 min
Histogram: 44 3 0 1 2 0 0 1 5 4

Total # of neighbors = 3893763
Ave neighs/atom = 72.0427
Neighbor list builds = 152
Dangerous builds = 0

print		"run finished for a value $a"
run finished for a value 47

#undump	relax
#uncompute myT
unfix	freeze
unfix	1
unfix	2
group	myG	clear
group	subG 	clear
variable dxx	delete
variable dyy	delete
variable dzz  	delete

next a
jump in.CuZr_deposit l1

variable	diff equal ($(lx)-v_top)
variable	diff equal (99.972561512258494076-v_top)
if "v_diff<=20" then "change_box all z delta 0 10"
change_box all z delta 0 10
  orthogonal box = (-49.9863 -49.9863 -19.9973) to (49.9863 49.9863 589.997)

group		myG  id <= 0
0 atoms in group myG
read_data	myNanoP.txt add append group myG
  orthogonal box = (-49.9863 -49.9863 -19.9973) to (49.9863 49.9863 589.997)
  2 by 2 by 15 MPI processor grid
  reading atoms ...
  884 atoms
  reading velocities ...
  884 velocities
  read_data CPU = 0.0283999 secs
group		subG subtract all myG
54048 atoms in group subG

variable	dxx   equal  "v_dispX-0.5*v_BoxL"
variable	dyy   equal  "v_dispY-0.5*v_BoxL"
variable	dzz   equal  "v_a*3+50"
print		"${dzz}"
194

displace_atoms myG move ${dxx} ${dyy} ${dzz} units box	#make it uniform
displace_atoms myG move -42.4901274831805 ${dyy} ${dzz} units box	
displace_atoms myG move -42.4901274831805 -1.04990396085554 ${dzz} units box	
displace_atoms myG move -42.4901274831805 -1.04990396085554 194 units box	
#displace_atoms myG move 0 0  50 units box		#make it uniform
reset_ids
Resetting atom IDs ...

variable	E equal 50*(1.6e-19)				#units: eV
variable	mass equal (mass(myG))*(1.6605e-27)
variable        cvel equal (-1)*(sqrt(2*${E}/${mass}))/100	#metal units: vel = 1 Angstr/ps = 100 m/s
variable        cvel equal (-1)*(sqrt(2*8e-18/${mass}))/100	
variable        cvel equal (-1)*(sqrt(2*8e-18/1.0826230851e-22))/100	
velocity        myG create 300 74657362 mom yes rot yes
velocity        myG set 0 0 ${cvel} units box
velocity        myG set 0 0 -3.84433609775096 units box

velocity        subG create 300 74657362 mom yes rot yes
set             group bottomLayer vz  0
  1261 settings made for vz
fix             freeze bottomLayer setforce NULL NULL 0.0

#compute myT 	subG temp
#thermo_modify 	temp myT

fix            1 all nve
fix            2 bottomLayer temp/berendsen 200.0 200.0 0.1
run            20000
Per MPI rank memory allocation (min/avg/max) = 1.092 | 4.71 | 6.598 Mbytes
Step PotEng Press Pxx Pyy Pzz Lx Ly Lz Volume Temp 
  940000   -246100.13   -575.22697   -766.47937   -752.31376   -206.88778    99.972562    99.972562    609.99451    6096598.1    299.96401 
  941000   -246219.83   -363.98597   -518.62042   -541.43004   -31.907467    99.972562    99.972562    609.99451    6096598.1    316.44593 
  942000   -246232.77   -462.40966   -599.33854   -633.91784   -153.97262    99.972562    99.972562    609.99451    6096598.1    317.94628 
  943000   -246247.93   -366.63174   -535.65391   -539.22642   -25.014882    99.972562    99.972562    609.99451    6096598.1    320.19863 
  944000   -246233.67   -386.53146   -539.20543   -610.06988   -10.319076    99.972562    99.972562    609.99451    6096598.1    317.43203 
  945000   -246241.83   -398.68846   -611.35059   -551.41332   -33.301469    99.972562    99.972562    609.99451    6096598.1    318.93426 
  946000   -246250.04   -308.29066   -489.06309   -518.60034    82.791443    99.972562    99.972562    609.99451    6096598.1    320.37368 
  947000   -246241.39   -276.89435   -439.89297   -461.44257    70.652496    99.972562    99.972562    609.99451    6096598.1    319.16745 
  948000    -246251.4   -361.49313   -540.06723   -558.90294    14.490797    99.972562    99.972562    609.99451    6096598.1     320.7784 
  949000   -246262.08    -310.1788   -510.09744   -452.51708      32.0781    99.972562    99.972562    609.99451    6096598.1    322.49763 
  950000   -246258.41   -393.16681   -581.99978   -594.29613   -3.2045057    99.972562    99.972562    609.99451    6096598.1    322.22123 
  951000   -246255.25   -355.64071   -536.58681   -530.72103   0.38569827    99.972562    99.972562    609.99451    6096598.1     321.8432 
  952000   -246266.07    -387.4671   -585.58524   -544.45958   -32.356475    99.972562    99.972562    609.99451    6096598.1    323.24162 
  953000   -246279.64    -353.2203   -513.85472   -539.66876   -6.1374136    99.972562    99.972562    609.99451    6096598.1    325.05184 
  954000   -246269.16   -400.54054   -569.02034   -601.21163   -31.389656    99.972562    99.972562    609.99451    6096598.1     323.0316 
  955000   -246282.32   -403.19771   -597.70695   -588.21234   -23.673821    99.972562    99.972562    609.99451    6096598.1    324.64226 
  956000    -246285.8   -324.07494   -479.66765   -503.06729    10.510123    99.972562    99.972562    609.99451    6096598.1    324.54068 
  957000   -246284.04   -334.43154   -521.31131   -522.45928    40.475988    99.972562    99.972562    609.99451    6096598.1    324.10183 
  958000   -246295.39   -373.02804   -544.81784   -545.11059    -29.15568    99.972562    99.972562    609.99451    6096598.1    325.52067 
  959000   -246302.18   -366.93775   -543.04774   -592.86425    35.098741    99.972562    99.972562    609.99451    6096598.1    326.22168 
  960000   -246308.23   -320.24882   -507.20587   -506.05847    52.517892    99.972562    99.972562    609.99451    6096598.1    327.11529 
Loop time of 923.81 on 60 procs for 20000 steps with 54932 atoms

Performance: 1.871 ns/day, 12.831 hours/ns, 21.649 timesteps/s
58.4% CPU use with 60 MPI tasks x no OpenMP threads

MPI task timing breakdown:
Section |  min time  |  avg time  |  max time  |%varavg| %total
---------------------------------------------------------------
Pair    | 0.00755    | 170.4      | 732.04     |2002.2 | 18.45
Neigh   | 0.00082159 | 0.62025    | 3.962      | 152.3 |  0.07
Comm    | 0.11224    | 74.242     | 412.79     |1390.1 |  8.04
Output  | 1.2504     | 1.4352     | 1.6125     |   8.8 |  0.16
Modify  | 16.51      | 649.52     | 911.26     |1408.9 | 70.31
Other   |            | 27.59      |            |       |  2.99

Nlocal:    915.533 ave 5125 max 0 min
Histogram: 44 2 1 1 2 0 0 0 7 3
Nghost:    1413.48 ave 7325 max 0 min
Histogram: 44 0 0 3 1 0 1 5 2 4
Neighs:    66069.9 ave 381904 max 0 min
Histogram: 44 3 1 0 2 0 0 1 5 4

Total # of neighbors = 3964192
Ave neighs/atom = 72.1654
Neighbor list builds = 153
Dangerous builds = 0
