ITEM: TIMESTEP
570000
ITEM: NUMBER OF ATOMS
884
ITEM: BOX BOUNDS pp pp pp
-2.7057867000000002e+01 2.7057867000000002e+01
-2.7057867000000002e+01 2.7057867000000002e+01
-2.7057867000000002e+01 2.7057867000000002e+01
ITEM: ATOMS id type mass x y z f_f8[1] f_f8[2] f_f8[3] f_f8[4] 
23 2 63.55 -10.2039 -5.8763 -7.71344 -10.2039 -5.8763 -7.71344 -2.82678 
73 2 63.55 -11.657 -5.19201 -5.84465 -11.657 -5.19201 -5.84465 -2.99696 
192 2 63.55 -13.5859 -3.27944 -6.00533 -13.5859 -3.27944 -6.00533 -2.68572 
134 2 63.55 -11.5453 -3.4169 -7.44684 -11.5453 -3.4169 -7.44684 -3.05868 
801 1 91.22 -12.7592 -0.766309 -6.74226 -12.7592 -0.766309 -6.74226 -5.72066 
349 2 63.55 -9.56438 -3.08703 -9.18428 -9.56438 -3.08703 -9.18428 -3.15665 
770 1 91.22 -9.67276 -0.887284 -7.11986 -9.67276 -0.887284 -7.11986 -6.34723 
180 2 63.55 -11.4973 -1.2612 -9.12539 -11.4973 -1.2612 -9.12539 -2.83676 
509 1 91.22 -9.23391 -0.594404 -10.3257 -9.23391 -0.594404 -10.3257 -5.51515 
742 1 91.22 -9.04853 -3.97618 -6.35278 -9.04853 -3.97618 -6.35278 -6.18281 
267 1 91.22 -9.91521 -10.0412 -1.80829 -9.91521 -10.0412 -1.80829 -5.31299 
363 2 63.55 -9.74337 -8.21464 -3.80024 -9.74337 -8.21464 -3.80024 -3.16365 
388 2 63.55 -9.45523 -6.25548 -5.16498 -9.45523 -6.25548 -5.16498 -3.32087 
298 2 63.55 -11.4998 -6.51529 -3.25838 -11.4998 -6.51529 -3.25838 -2.97581 
854 2 63.55 -9.26728 -6.17103 -2.37717 -9.26728 -6.17103 -2.37717 -3.50898 
255 2 63.55 -10.903 -7.65323 -1.0991 -10.903 -7.65323 -1.0991 -3.1915 
868 1 91.22 -11.6297 -4.88313 -0.963232 -11.6297 -4.88313 -0.963232 -6.13158 
678 2 63.55 -10.4286 -4.35474 -3.6244 -10.4286 -4.35474 -3.6244 -3.37012 
728 1 91.22 -13.7967 -1.62604 -3.84404 -13.7967 -1.62604 -3.84404 -5.71103 
568 2 63.55 -13.9006 -3.3355 -1.54189 -13.9006 -3.3355 -1.54189 -2.91326 
259 2 63.55 -13.8317 -0.862286 -1.08278 -13.8317 -0.862286 -1.08278 -3.18082 
857 2 63.55 -12.7595 -4.03049 -3.48438 -12.7595 -4.03049 -3.48438 -3.10353 
619 2 63.55 -11.1669 -2.75302 -5.23104 -11.1669 -2.75302 -5.23104 -3.42186 
325 1 91.22 -11.1599 -2.02342 -2.25066 -11.1599 -2.02342 -2.25066 -6.39399 
162 2 63.55 -11.1053 -0.476832 -4.54789 -11.1053 -0.476832 -4.54789 -3.54082 
7 2 63.55 -9.1228 -2.32995 -3.92432 -9.1228 -2.32995 -3.92432 -3.56331 
118 2 63.55 -13.5768 -4.55198 0.915018 -13.5768 -4.55198 0.915018 -2.91518 
415 2 63.55 -10.8758 -8.99913 3.60211 -10.8758 -8.99913 3.60211 -2.87357 
314 1 91.22 -9.87935 -9.06916 1.07699 -9.87935 -9.06916 1.07699 -5.63021 
126 2 63.55 -12.1359 -1.48055 2.17166 -12.1359 -1.48055 2.17166 -3.34083 
209 1 91.22 -11.5927 -6.59854 1.72464 -11.5927 -6.59854 1.72464 -5.72304 
287 2 63.55 -9.79732 -4.81537 3.08768 -9.79732 -4.81537 3.08768 -3.71819 
193 1 91.22 -11.5268 -6.60576 4.7236 -11.5268 -6.60576 4.7236 -5.56709 
840 2 63.55 -14.4568 -2.27261 1.4863 -14.4568 -2.27261 1.4863 -2.78949 
563 1 91.22 -13.8622 -0.868517 4.18502 -13.8622 -0.868517 4.18502 -5.46869 
481 1 91.22 -9.71076 -2.29659 0.369786 -9.71076 -2.29659 0.369786 -6.31077 
170 1 91.22 -10.4063 -2.03861 3.83953 -10.4063 -2.03861 3.83953 -6.16996 
372 2 63.55 -12.538 -2.3636 0.0904423 -12.538 -2.3636 0.0904423 -3.21749 
692 2 63.55 -11.2921 -3.93064 1.52297 -11.2921 -3.93064 1.52297 -3.34106 
8 2 63.55 -9.18741 -0.266596 2.04008 -9.18741 -0.266596 2.04008 -3.69496 
375 1 91.22 -12.9008 -4.03612 3.59638 -12.9008 -4.03612 3.59638 -5.83363 
874 2 63.55 -9.05436 -5.94385 5.40653 -9.05436 -5.94385 5.40653 -3.46863 
687 2 63.55 -12.9925 -4.59879 6.41564 -12.9925 -4.59879 6.41564 -2.29418 
512 1 91.22 -10.8658 -6.24979 7.63894 -10.8658 -6.24979 7.63894 -5.27545 
740 2 63.55 -9.1401 -1.83414 6.28424 -9.1401 -1.83414 6.28424 -3.54485 
29 2 63.55 -11.5455 -0.801334 5.75694 -11.5455 -0.801334 5.75694 -3.32993 
705 2 63.55 -10.5044 -1.34792 10.2317 -10.5044 -1.34792 10.2317 -2.76929 
714 2 63.55 -10.6841 -4.0098 5.66053 -10.6841 -4.0098 5.66053 -3.55616 
786 2 63.55 -12.9086 -2.89544 6.23947 -12.9086 -2.89544 6.23947 -2.28636 
434 1 91.22 -10.889 -2.83541 8.1803 -10.889 -2.83541 8.1803 -5.63261 
474 1 91.22 -9.22386 8.17261 -6.26053 -9.22386 8.17261 -6.26053 -5.54336 
477 2 63.55 -13.3859 1.80525 -7.48909 -13.3859 1.80525 -7.48909 -2.81004 
55 1 91.22 -11.097 1.60446 -9.09729 -11.097 1.60446 -9.09729 -5.6879 
217 2 63.55 -9.60664 3.50739 -7.40389 -9.60664 3.50739 -7.40389 -3.27822 
595 2 63.55 -12.1055 4.01836 -7.61872 -12.1055 4.01836 -7.61872 -3.05864 
472 1 91.22 -9.55335 4.36777 -9.79466 -9.55335 4.36777 -9.79466 -5.37587 
699 1 91.22 -10.9806 1.6445 -5.98982 -10.9806 1.6445 -5.98982 -6.32753 
28 2 63.55 -10.4426 4.33002 -5.52011 -10.4426 4.33002 -5.52011 -3.27408 
406 2 63.55 -13.3353 3.372 -5.50438 -13.3353 3.372 -5.50438 -3.08167 
549 1 91.22 -12.3098 6.20296 -5.41306 -12.3098 6.20296 -5.41306 -5.49833 
616 2 63.55 -10.34 5.97005 -7.49034 -10.34 5.97005 -7.49034 -3.1408 
184 2 63.55 -9.2798 1.9603 -10.9586 -9.2798 1.9603 -10.9586 -2.84443 
414 2 63.55 -14.0824 0.991295 -5.10234 -14.0824 0.991295 -5.10234 -3.04843 
4 2 63.55 -14.6343 2.96704 -3.37542 -14.6343 2.96704 -3.37542 -2.80979 
871 2 63.55 -15.1462 0.702506 -2.78802 -15.1462 0.702506 -2.78802 -2.70046 
417 2 63.55 -14.0239 1.52464 -0.656025 -14.0239 1.52464 -0.656025 -3.10056 
1 2 63.55 -13.3929 3.94159 -1.4307 -13.3929 3.94159 -1.4307 -3.19313 
582 1 91.22 -12.5543 1.15589 -2.976 -12.5543 1.15589 -2.976 -6.25824 
791 1 91.22 -9.70816 3.13857 -3.30046 -9.70816 3.13857 -3.30046 -6.28505 
659 2 63.55 -11.2405 2.71503 -1.02446 -11.2405 2.71503 -1.02446 -3.57798 
501 2 63.55 -12.113 4.0318 -3.69316 -12.113 4.0318 -3.69316 -3.41882 
747 2 63.55 -10.0829 0.56151 -2.17606 -10.0829 0.56151 -2.17606 -3.55497 
6 2 63.55 -14.3028 5.18958 -3.85273 -14.3028 5.18958 -3.85273 -2.65777 
490 2 63.55 -11.1116 5.00349 -1.68824 -11.1116 5.00349 -1.68824 -3.34405 
640 1 91.22 -12.7636 6.78835 -2.48377 -12.7636 6.78835 -2.48377 -5.56693 
362 1 91.22 -9.68124 6.3367 -3.92656 -9.68124 6.3367 -3.92656 -6.2783 
626 2 63.55 -11.3337 8.48349 -4.24691 -11.3337 8.48349 -4.24691 -2.85709 
67 2 63.55 -10.0284 7.23035 -1.50378 -10.0284 7.23035 -1.50378 -3.28063 
872 2 63.55 -11.3555 9.16495 -1.79039 -11.3555 9.16495 -1.79039 -2.70847 
346 2 63.55 -13.0632 5.7857 0.211303 -13.0632 5.7857 0.211303 -2.95348 
613 2 63.55 -14.2186 1.78545 3.72976 -14.2186 1.78545 3.72976 -2.71365 
3 2 63.55 -10.0847 2.25634 1.43713 -10.0847 2.25634 1.43713 -3.59253 
242 1 91.22 -12.9321 2.95461 1.44819 -12.9321 2.95461 1.44819 -5.99099 
99 2 63.55 -10.4217 4.03807 3.3524 -10.4217 4.03807 3.3524 -3.62799 
357 1 91.22 -11.3679 1.03979 3.41141 -11.3679 1.03979 3.41141 -6.42292 
196 1 91.22 -11.4643 0.264012 0.233295 -11.4643 0.264012 0.233295 -6.3449 
717 2 63.55 -12.6034 3.40037 4.17507 -12.6034 3.40037 4.17507 -3.16243 
294 1 91.22 -9.36278 6.86951 3.1084 -9.36278 6.86951 3.1084 -6.19201 
237 1 91.22 -11.2998 7.81308 0.787252 -11.2998 7.81308 0.787252 -5.50183 
283 1 91.22 -10.3385 4.89248 0.691 -10.3385 4.89248 0.691 -6.21807 
454 2 63.55 -12.3581 5.49022 2.65545 -12.3581 5.49022 2.65545 -3.05382 
621 1 91.22 -11.6089 5.93727 5.20889 -11.6089 5.93727 5.20889 -5.34045 
738 2 63.55 -9.23464 9.33519 -3.55782 -9.23464 9.33519 -3.55782 -3.05227 
85 2 63.55 -13.7603 0.187922 1.62221 -13.7603 0.187922 1.62221 -3.1823 
463 2 63.55 -9.23267 9.29947 -0.771178 -9.23267 9.29947 -0.771178 -3.14734 
851 2 63.55 -12.4572 3.9718 6.95474 -12.4572 3.9718 6.95474 -2.75158 
299 1 91.22 -10.4071 2.9665 5.92721 -10.4071 2.9665 5.92721 -6.18187 
342 1 91.22 -10.795 3.11286 8.91963 -10.795 3.11286 8.91963 -5.36196 
836 2 63.55 -12.63 1.41447 5.83761 -12.63 1.41447 5.83761 -3.12045 
535 2 63.55 -9.30891 0.407779 5.62949 -9.30891 0.407779 5.62949 -3.63306 
404 2 63.55 -9.43534 0.964224 10.2951 -9.43534 0.964224 10.2951 -3.15867 
883 1 91.22 -11.0479 0.289558 8.09281 -11.0479 0.289558 8.09281 -5.67208 
307 2 63.55 -10.5623 5.544 7.58386 -10.5623 5.544 7.58386 -3.08235 
748 2 63.55 -9.83569 7.83771 5.64427 -9.83569 7.83771 5.64427 -2.99801 
884 2 63.55 -9.03147 5.34198 5.46434 -9.03147 5.34198 5.46434 -3.44403 
21 2 63.55 -9.04493 5.79713 9.49245 -9.04493 5.79713 9.49245 -3.03958 
57 2 63.55 -3.75333 -6.21449 -11.8463 -3.75333 -6.21449 -11.8463 -3.02846 
479 1 91.22 -1.06008 -5.42056 -12.1905 -1.06008 -5.42056 -12.1905 -5.90334 
26 2 63.55 -4.04527 -4.05447 -13.4394 -4.04527 -4.05447 -13.4394 -2.62944 
810 2 63.55 -1.9801 -7.98676 -11.3106 -1.9801 -7.98676 -11.3106 -3.05965 
239 2 63.55 0.316868 -7.7648 -12.381 0.316868 -7.7648 -12.381 -2.83645 
212 2 63.55 2.37079 -7.36028 -10.9566 2.37079 -7.36028 -10.9566 -3.32894 
725 2 63.55 1.87313 -5.90074 -13.0906 1.87313 -5.90074 -13.0906 -2.89351 
425 1 91.22 1.81715 -4.62542 -10.8587 1.81715 -4.62542 -10.8587 -6.17217 
165 1 91.22 4.48822 -5.74554 -12.0798 4.48822 -5.74554 -12.0798 -5.59876 
264 2 63.55 -5.54598 -4.49438 -11.5684 -5.54598 -4.49438 -11.5684 -2.9986 
473 2 63.55 -5.40192 -2.0148 -11.8068 -5.40192 -2.0148 -11.8068 -3.22941 
681 2 63.55 -7.55683 -2.75608 -10.6764 -7.55683 -2.75608 -10.6764 -3.13562 
176 2 63.55 -7.45961 -0.324196 -12.2101 -7.45961 -0.324196 -12.2101 -2.68953 
520 2 63.55 -3.56269 -1.64191 -13.4306 -3.56269 -1.64191 -13.4306 -3.02455 
483 2 63.55 -1.86904 -3.37598 -13.4477 -1.86904 -3.37598 -13.4477 -2.98278 
436 1 91.22 -0.15098 -2.16458 -11.5698 -0.15098 -2.16458 -11.5698 -6.26982 
56 1 91.22 -0.874344 -0.736528 -14.1187 -0.874344 -0.736528 -14.1187 -5.49643 
556 1 91.22 -2.46362 -0.230264 -11.4594 -2.46362 -0.230264 -11.4594 -6.36517 
735 1 91.22 -3.05958 -3.39808 -10.8725 -3.05958 -3.39808 -10.8725 -6.38008 
675 2 63.55 0.679308 -3.71311 -13.7024 0.679308 -3.71311 -13.7024 -3.07738 
485 2 63.55 3.17165 -3.74153 -13.313 3.17165 -3.74153 -13.313 -2.92766 
339 2 63.55 2.60346 -2.07738 -11.4666 2.60346 -2.07738 -11.4666 -3.44378 
318 1 91.22 2.058 -1.32531 -14.05 2.058 -1.32531 -14.05 -5.35774 
179 2 63.55 4.8273 -2.70571 -12.1528 4.8273 -2.70571 -12.1528 -3.06373 
554 2 63.55 4.68614 -0.480658 -12.737 4.68614 -0.480658 -12.737 -2.85491 
232 1 91.22 6.91607 -3.97334 -10.7834 6.91607 -3.97334 -10.7834 -5.65703 
793 1 91.22 -5.28612 -11.6648 -5.91671 -5.28612 -11.6648 -5.91671 -5.42025 
175 2 63.55 -7.26504 -10.3998 -7.2358 -7.26504 -10.3998 -7.2358 -2.72198 
486 2 63.55 -4.82275 -10.1799 -8.18749 -4.82275 -10.1799 -8.18749 -3.03811 
571 2 63.55 -6.08146 -8.82812 -5.93692 -6.08146 -8.82812 -5.93692 -3.59858 
182 2 63.55 -3.00742 -11.7511 -7.4255 -3.00742 -11.7511 -7.4255 -2.98136 
529 2 63.55 -1.19394 -13.1408 -6.2685 -1.19394 -13.1408 -6.2685 -2.64749 
219 2 63.55 -0.083701 -11.3788 -7.93589 -0.083701 -11.3788 -7.93589 -2.98733 
261 2 63.55 -3.45594 -9.56803 -6.16296 -3.45594 -9.56803 -6.16296 -3.59813 
785 1 91.22 -2.22702 -9.53394 -8.8278 -2.22702 -9.53394 -8.8278 -6.02245 
352 1 91.22 -0.984947 -10.6139 -5.67693 -0.984947 -10.6139 -5.67693 -6.03825 
487 1 91.22 0.523931 -9.78 -10.4379 0.523931 -9.78 -10.4379 -5.3646 
614 2 63.55 2.36393 -11.2099 -9.17524 2.36393 -11.2099 -9.17524 -2.72283 
323 2 63.55 4.27919 -11.8728 -5.92916 4.27919 -11.8728 -5.92916 -2.98426 
465 2 63.55 2.24442 -10.3482 -6.85116 2.24442 -10.3482 -6.85116 -3.41734 
564 2 63.55 0.415167 -9.17155 -7.70312 0.415167 -9.17155 -7.70312 -3.41665 
825 2 63.55 -6.34718 -0.310067 -10.196 -6.34718 -0.310067 -10.196 -3.42005 
656 1 91.22 4.88746 -10.5425 -8.25129 4.88746 -10.5425 -8.25129 -5.60168 
277 2 63.55 5.65525 -9.79662 -5.64554 5.65525 -9.79662 -5.64554 -3.33527 
431 2 63.55 7.53292 -9.56332 -7.18374 7.53292 -9.56332 -7.18374 -3.09912 
594 2 63.55 7.10372 -9.25473 -9.72427 7.10372 -9.25473 -9.72427 -2.68883 
54 2 63.55 -6.71384 -8.43412 -8.32282 -6.71384 -8.43412 -8.32282 -3.05657 
811 1 91.22 -5.77644 -6.13754 -9.53233 -5.77644 -6.13754 -9.53233 -5.80365 
22 1 91.22 -6.7171 -6.21678 -6.35259 -6.7171 -6.21678 -6.35259 -6.4378 
589 2 63.55 -8.2955 -6.60674 -8.77994 -8.2955 -6.60674 -8.77994 -2.91052 
169 2 63.55 -4.21781 -8.29062 -10.2821 -4.21781 -8.29062 -10.2821 -2.97951 
2 1 91.22 -8.85153 -8.30344 -6.59197 -8.85153 -8.30344 -6.59197 -5.50333 
670 2 63.55 -4.00774 -5.63895 -7.14691 -4.00774 -5.63895 -7.14691 -3.44169 
815 2 63.55 -4.27676 -7.86935 -7.75343 -4.27676 -7.86935 -7.75343 -3.54697 
466 1 91.22 -2.83673 -5.9673 -9.4553 -2.83673 -5.9673 -9.4553 -6.11346 
844 1 91.22 -1.42655 -7.38276 -6.65655 -1.42655 -7.38276 -6.65655 -6.53202 
806 1 91.22 0.0097284 -6.94827 -9.56675 0.0097284 -6.94827 -9.56675 -6.39833 
852 1 91.22 3.64425 -6.24079 -8.97774 3.64425 -6.24079 -8.97774 -6.34932 
875 2 63.55 1.46758 -7.10196 -7.18466 1.46758 -7.10196 -7.18466 -3.56104 
587 2 63.55 2.54804 -8.90337 -8.80666 2.54804 -8.90337 -8.80666 -3.43963 
295 1 91.22 3.97838 -7.97045 -6.58347 3.97838 -7.97045 -6.58347 -6.08333 
632 2 63.55 2.86719 -5.39953 -6.36263 2.86719 -5.39953 -6.36263 -3.4029 
84 2 63.55 1.12652 -4.79236 -7.85624 1.12652 -4.79236 -7.85624 -3.67365 
345 1 91.22 4.57946 -8.69762 -10.7409 4.57946 -8.69762 -10.7409 -5.34507 
418 2 63.55 6.58534 -6.6317 -10.4273 6.58534 -6.6317 -10.4273 -3.18253 
319 2 63.55 5.74829 -7.89743 -8.24587 5.74829 -7.89743 -8.24587 -3.38449 
280 1 91.22 8.78537 -7.29004 -8.56971 8.78537 -7.29004 -8.56971 -5.58088 
348 1 91.22 6.81012 -7.2505 -5.67583 6.81012 -7.2505 -5.67583 -6.44445 
561 1 91.22 6.42019 -5.09518 -8.18819 6.42019 -5.09518 -8.18819 -6.27412 
246 1 91.22 8.81449 -4.95635 -6.333 8.81449 -4.95635 -6.333 -6.35918 
752 2 63.55 5.08872 -5.14089 -5.68719 5.08872 -5.14089 -5.68719 -3.54564 
98 2 63.55 -7.51062 -4.28743 -8.55881 -7.51062 -4.28743 -8.55881 -3.27606 
819 1 91.22 -7.29949 -1.79704 -8.14305 -7.29949 -1.79704 -8.14305 -5.98362 
62 2 63.55 -5.42416 -3.32572 -9.44324 -5.42416 -3.32572 -9.44324 -3.37985 
103 2 63.55 -5.63602 -3.79491 -6.94249 -5.63602 -3.79491 -6.94249 -3.61045 
410 2 63.55 8.98403 -2.26448 -10.7962 8.98403 -2.26448 -10.7962 -2.90002 
138 2 63.55 8.31737 -3.00171 -8.35973 8.31737 -3.00171 -8.35973 -3.46234 
718 1 91.22 -4.35795 -1.16291 -6.80998 -4.35795 -1.16291 -6.80998 -6.32978 
652 2 63.55 -1.34095 -4.63312 -7.45251 -1.34095 -4.63312 -7.45251 -3.59408 
107 2 63.55 -4.24293 -1.40092 -9.52396 -4.24293 -1.40092 -9.52396 -3.5309 
495 2 63.55 -3.44468 -3.54088 -8.05421 -3.44468 -3.54088 -8.05421 -3.53576 
252 2 63.55 -1.82765 -2.53168 -6.20962 -1.82765 -2.53168 -6.20962 -3.59555 
804 2 63.55 -0.52252 -4.15757 -9.68235 -0.52252 -4.15757 -9.68235 -3.62843 
710 1 91.22 -1.23431 -1.85553 -8.65923 -1.23431 -1.85553 -8.65923 -6.32452 
628 1 91.22 3.87478 -0.344307 -9.80124 3.87478 -0.344307 -9.80124 -6.21352 
284 2 63.55 4.24475 -3.63666 -9.92076 4.24475 -3.63666 -9.92076 -3.62787 
457 2 63.55 2.38181 -0.932618 -7.6899 2.38181 -0.932618 -7.6899 -3.59055 
797 2 63.55 1.46599 -2.61367 -9.0781 1.46599 -2.61367 -9.0781 -3.59131 
839 1 91.22 0.945614 -2.63528 -5.99742 0.945614 -2.63528 -5.99742 -6.39451 
772 1 91.22 3.68825 -3.22805 -7.36543 3.68825 -3.22805 -7.36543 -6.21202 
253 2 63.55 1.08856 -0.467129 -9.91582 1.08856 -0.467129 -9.91582 -3.44259 
540 1 91.22 6.70126 -0.86461 -10.8765 6.70126 -0.86461 -10.8765 -5.72277 
278 2 63.55 6.01204 -2.27568 -8.74825 6.01204 -2.27568 -8.74825 -3.60811 
136 2 63.55 6.6342 -3.08375 -6.43583 6.6342 -3.08375 -6.43583 -3.54794 
137 1 91.22 5.32867 -0.64867 -6.67832 5.32867 -0.64867 -6.67832 -6.33727 
185 1 91.22 8.05987 -0.314547 -8.16614 8.05987 -0.314547 -8.16614 -6.29553 
449 2 63.55 -7.21724 -10.3033 -1.66586 -7.21724 -10.3033 -1.66586 -3.46781 
77 2 63.55 -8.3388 -12.4897 -2.14708 -8.3388 -12.4897 -2.14708 -2.61643 
203 2 63.55 -5.91417 -11.9267 -3.11948 -5.91417 -11.9267 -3.11948 -3.16343 
471 1 91.22 -7.96606 -10.4443 -4.30376 -7.96606 -10.4443 -4.30376 -5.76576 
603 1 91.22 -4.56876 -9.60107 -3.59367 -4.56876 -9.60107 -3.59367 -6.43555 
158 2 63.55 -4.64882 -10.4552 -1.01037 -4.64882 -10.4552 -1.01037 -3.53249 
400 1 91.22 -6.33222 -12.4329 -0.0141215 -6.33222 -12.4329 -0.0141215 -5.41277 
374 1 91.22 -3.48069 -12.857 -2.05385 -3.48069 -12.857 -2.05385 -5.51822 
230 2 63.55 -2.24624 -10.9914 -0.503995 -2.24624 -10.9914 -0.503995 -3.30934 
320 2 63.55 -1.80213 -10.6145 -2.87985 -1.80213 -10.6145 -2.87985 -3.46503 
331 2 63.55 -0.885669 -12.7485 -3.67801 -0.885669 -12.7485 -3.67801 -3.08828 
842 2 63.55 -3.07724 -11.9474 -4.59604 -3.07724 -11.9474 -4.59604 -3.19974 
9 2 63.55 -0.619929 -12.4987 -1.24725 -0.619929 -12.4987 -1.24725 -3.04219 
41 2 63.55 0.407393 -10.4511 -0.65274 0.407393 -10.4511 -0.65274 -3.43986 
691 2 63.55 2.89293 -10.8976 -0.394218 2.89293 -10.8976 -0.394218 -3.27284 
308 2 63.55 0.640171 -10.8028 -3.02572 0.640171 -10.8028 -3.02572 -3.42047 
83 2 63.55 1.92463 -12.4508 -2.06927 1.92463 -12.4508 -2.06927 -2.99933 
631 1 91.22 3.27366 -10.3352 -3.88125 3.27366 -10.3352 -3.88125 -6.15942 
642 2 63.55 3.58968 -13.1166 -3.77278 3.58968 -13.1166 -3.77278 -2.71064 
275 2 63.55 4.68466 -11.6101 -1.83584 4.68466 -11.6101 -1.83584 -3.07703 
437 1 91.22 7.54486 -10.9004 -2.1751 7.54486 -10.9004 -2.1751 -5.48827 
683 1 91.22 5.10788 -9.40711 0.0699489 5.10788 -9.40711 0.0699489 -6.29057 
560 2 63.55 5.64837 -11.6156 -3.90916 5.64837 -11.6156 -3.90916 -2.98749 
149 2 63.55 7.86474 -10.4973 -4.93757 7.86474 -10.4973 -4.93757 -3.01166 
484 1 91.22 -6.52761 -5.39884 -1.50716 -6.52761 -5.39884 -1.50716 -6.22635 
771 2 63.55 -5.84465 -8.38303 -1.15749 -5.84465 -8.38303 -1.15749 -3.51768 
125 1 91.22 -7.13391 -7.5844 -3.54308 -7.13391 -7.5844 -3.54308 -6.47203 
210 2 63.55 -8.34352 -8.01138 -1.01472 -8.34352 -8.01138 -1.01472 -3.58791 
787 2 63.55 -5.52795 -4.7258 -3.97758 -5.52795 -4.7258 -3.97758 -3.54895 
821 2 63.55 -7.93756 -4.79158 -3.92532 -7.93756 -4.79158 -3.92532 -3.62631 
769 2 63.55 -4.4932 -6.82458 -2.37656 -4.4932 -6.82458 -2.37656 -3.60803 
151 1 91.22 -4.10983 -7.06996 -4.9519 -4.10983 -7.06996 -4.9519 -6.14032 
723 2 63.55 -1.94396 -8.64125 -4.27046 -1.94396 -8.64125 -4.27046 -3.61086 
707 2 63.55 -0.257688 -8.68037 -2.41729 -0.257688 -8.68037 -2.41729 -3.54863 
546 1 91.22 -2.69818 -8.59253 -1.27759 -2.69818 -8.59253 -1.27759 -6.19757 
624 2 63.55 -2.90215 -5.69065 -0.527331 -2.90215 -5.69065 -0.527331 -3.64801 
498 1 91.22 -1.70411 -6.37273 -2.96478 -1.70411 -6.37273 -2.96478 -6.27149 
356 2 63.55 -0.797666 -4.56975 -1.13113 -0.797666 -4.56975 -1.13113 -3.49338 
302 1 91.22 -0.182171 -7.04128 -0.24978 -0.182171 -7.04128 -0.24978 -6.35286 
341 2 63.55 -3.61301 -4.37683 -2.67041 -3.61301 -4.37683 -2.67041 -3.48152 
693 2 63.55 8.68115 -3.12173 -3.99913 8.68115 -3.12173 -3.99913 -3.52533 
430 2 63.55 0.909986 -6.38233 -2.70425 0.909986 -6.38233 -2.70425 -3.55698 
18 1 91.22 2.42216 -8.3892 -1.4924 2.42216 -8.3892 -1.4924 -6.38011 
306 2 63.55 2.63843 -5.71213 -1.17751 2.63843 -5.71213 -1.17751 -3.53095 
87 1 91.22 3.49033 -6.54833 -3.94265 3.49033 -6.54833 -3.94265 -6.50169 
243 1 91.22 1.05419 -8.52751 -4.81632 1.05419 -8.52751 -4.81632 -6.44993 
864 1 91.22 0.395457 -5.56125 -5.17395 0.395457 -5.56125 -5.17395 -6.29342 
225 2 63.55 4.78102 -7.06499 -1.28201 4.78102 -7.06499 -1.28201 -3.53505 
95 1 91.22 7.50672 -7.78647 -0.925986 7.50672 -7.78647 -0.925986 -6.18091 
634 2 63.55 6.30457 -6.33228 -2.89731 6.30457 -6.33228 -2.89731 -3.5729 
88 1 91.22 5.63908 -8.97395 -3.12295 5.63908 -8.97395 -3.12295 -6.13533 
544 2 63.55 8.26936 -8.38387 -3.43608 8.26936 -8.38387 -3.43608 -3.44653 
666 1 91.22 7.95613 -4.62187 -1.53238 7.95613 -4.62187 -1.53238 -6.30632 
668 2 63.55 8.68371 -5.99105 -3.79801 8.68371 -5.99105 -3.79801 -3.63318 
584 1 91.22 -6.67715 -2.3415 -4.96508 -6.67715 -2.3415 -4.96508 -6.31441 
90 2 63.55 -4.84048 -2.44098 -3.03548 -4.84048 -2.44098 -3.03548 -3.4218 
823 1 91.22 -7.3183 -1.5531 -1.88106 -7.3183 -1.5531 -1.88106 -6.41406 
33 2 63.55 -4.94104 -3.18954 -0.832517 -4.94104 -3.18954 -0.832517 -3.5013 
128 2 63.55 8.23922 -4.35065 3.87754 8.23922 -4.35065 3.87754 -3.49964 
5 1 91.22 -4.09163 -0.658126 -1.21751 -4.09163 -0.658126 -1.21751 -6.38309 
240 2 63.55 -3.20258 -1.05091 -4.15027 -3.20258 -1.05091 -4.15027 -3.57913 
228 1 91.22 -1.28661 -3.1027 -3.59162 -1.28661 -3.1027 -3.59162 -6.40502 
19 2 63.55 -1.33528 -0.772624 -2.21053 -1.33528 -0.772624 -2.21053 -3.54066 
152 2 63.55 -2.50173 -2.97188 -0.832126 -2.50173 -2.97188 -0.832126 -3.60149 
392 1 91.22 -0.707976 -0.174777 -4.79665 -0.707976 -0.174777 -4.79665 -6.25269 
794 2 63.55 -0.177776 -2.27508 -0.744681 -0.177776 -2.27508 -0.744681 -3.53809 
768 2 63.55 -3.92905 -3.19922 -5.10045 -3.92905 -3.19922 -5.10045 -3.45788 
226 2 63.55 3.12067 -3.80417 -4.61735 3.12067 -3.80417 -4.61735 -3.55784 
805 2 63.55 0.950342 -1.14165 -2.83192 0.950342 -1.14165 -2.83192 -3.65956 
470 1 91.22 1.5151 -3.77462 -2.60902 1.5151 -3.77462 -2.60902 -6.26181 
160 2 63.55 3.64684 -1.77722 -2.79179 3.64684 -1.77722 -2.79179 -3.54377 
145 1 91.22 2.56937 -0.111937 -5.01407 2.56937 -0.111937 -5.01407 -6.40593 
173 1 91.22 2.88566 -2.08022 -0.195624 2.88566 -2.08022 -0.195624 -6.2938 
427 2 63.55 0.620216 -0.0796168 -0.596976 0.620216 -0.0796168 -0.596976 -3.55279 
131 1 91.22 8.03242 -1.67723 5.21957 8.03242 -1.67723 5.21957 -6.34919 
316 2 63.55 7.24681 -0.690671 0.920078 7.24681 -0.690671 0.920078 -3.56981 
757 1 91.22 4.85971 -3.95283 -2.10456 4.85971 -3.95283 -2.10456 -6.36663 
519 2 63.55 5.34024 -2.40365 -4.4643 5.34024 -2.40365 -4.4643 -3.5747 
763 2 63.55 4.8299 -0.443823 -0.908287 4.8299 -0.443823 -0.908287 -3.59964 
39 1 91.22 6.99056 -1.67069 -2.23523 6.99056 -1.67069 -2.23523 -6.41242 
207 2 63.55 6.76585 -4.3784 -4.3043 6.76585 -4.3784 -4.3043 -3.50623 
475 2 63.55 7.66533 -1.0623 -4.96079 7.66533 -1.0623 -4.96079 -3.60128 
708 2 63.55 8.67905 -2.46085 -0.0914056 8.67905 -2.46085 -0.0914056 -3.5648 
547 1 91.22 -8.84342 -11.1323 3.35289 -8.84342 -11.1323 3.35289 -5.26692 
20 1 91.22 -6.96612 -9.53757 1.13791 -6.96612 -9.53757 1.13791 -6.34699 
444 2 63.55 -6.78656 -9.51445 3.80331 -6.78656 -9.51445 3.80331 -3.45133 
208 1 91.22 -5.69025 -11.9699 3.02555 -5.69025 -11.9699 3.02555 -5.64405 
575 2 63.55 -8.77323 -11.5226 0.303881 -8.77323 -11.5226 0.303881 -2.98969 
869 2 63.55 -1.41955 -12.4444 1.12221 -1.41955 -12.4444 1.12221 -3.01322 
731 2 63.55 -3.92057 -12.4683 0.939036 -3.92057 -12.4683 0.939036 -3.07006 
645 1 91.22 -0.960038 -9.49274 1.4794 -0.960038 -9.49274 1.4794 -6.18156 
835 1 91.22 -3.87487 -9.58915 1.5915 -3.87487 -9.58915 1.5915 -6.27009 
123 2 63.55 -4.4861 -9.82571 4.29632 -4.4861 -9.82571 4.29632 -3.48697 
334 1 91.22 -2.49637 -11.464 3.41046 -2.49637 -11.464 3.41046 -5.7801 
833 2 63.55 -0.207887 -9.41107 4.10599 -0.207887 -9.41107 4.10599 -3.64877 
155 2 63.55 -0.388802 -11.7505 4.96793 -0.388802 -11.7505 4.96793 -2.96438 
72 1 91.22 4.64126 -0.185748 1.8821 4.64126 -0.185748 1.8821 -6.35636 
611 2 63.55 1.24594 -12.5861 0.416792 1.24594 -12.5861 0.416792 -2.90915 
566 1 91.22 3.72519 -11.6487 1.94597 3.72519 -11.6487 1.94597 -5.33525 
469 1 91.22 2.06978 -9.1137 1.63197 2.06978 -9.1137 1.63197 -6.40415 
784 2 63.55 0.424034 -11.4919 2.57454 0.424034 -11.4919 2.57454 -3.22991 
204 1 91.22 2.10768 -10.9147 4.48801 2.10768 -10.9147 4.48801 -5.55769 
776 2 63.55 7.04063 -2.49018 2.79071 7.04063 -2.49018 2.79071 -3.48246 
338 2 63.55 7.70865 -9.94927 0.421805 7.70865 -9.94927 0.421805 -3.1616 
451 2 63.55 6.4767 -10.662 2.57619 6.4767 -10.662 2.57619 -3.08325 
513 2 63.55 4.80097 -11.2251 4.52582 4.80097 -11.2251 4.52582 -2.83954 
464 1 91.22 -8.4845 -7.49721 3.11866 -8.4845 -7.49721 3.11866 -6.37979 
441 2 63.55 -6.66498 -6.70918 0.944346 -6.66498 -6.70918 0.944346 -3.6476 
116 2 63.55 -7.16543 -5.04442 2.88113 -7.16543 -5.04442 2.88113 -3.59503 
664 2 63.55 -6.76015 -6.33902 5.21204 -6.76015 -6.33902 5.21204 -3.50751 
156 2 63.55 -5.25916 -4.71473 4.31141 -5.25916 -4.71473 4.31141 -3.53773 
101 1 91.22 -5.17957 -7.31039 3.34473 -5.17957 -7.31039 3.34473 -6.36841 
272 2 63.55 -4.45146 -7.35511 0.333038 -4.45146 -7.35511 0.333038 -3.41932 
140 1 91.22 -4.60452 -4.94704 1.51484 -4.60452 -4.94704 1.51484 -6.27947 
453 2 63.55 -2.52398 -8.21631 3.63755 -2.52398 -8.21631 3.63755 -3.67542 
382 2 63.55 -2.33356 -6.98774 1.51113 -2.33356 -6.98774 1.51113 -3.67499 
301 2 63.55 -2.62289 -5.77484 3.70391 -2.62289 -5.77484 3.70391 -3.68191 
429 1 91.22 -0.0866955 -6.81291 2.86666 -0.0866955 -6.81291 2.86666 -6.34978 
30 1 91.22 4.43996 -8.81503 3.42742 4.43996 -8.81503 3.42742 -6.15799 
773 2 63.55 2.01465 -6.48318 1.07791 2.01465 -6.48318 1.07791 -3.39613 
24 2 63.55 1.87371 -8.151 4.78955 1.87371 -8.151 4.78955 -3.73402 
876 2 63.55 2.88038 -6.39378 3.16317 2.88038 -6.39378 3.16317 -3.5566 
712 2 63.55 1.57017 -5.72278 5.1729 1.57017 -5.72278 5.1729 -3.68338 
518 2 63.55 4.32771 -6.85362 1.18822 4.32771 -6.85362 1.18822 -3.56858 
593 2 63.55 3.6727 -4.51734 0.698197 3.6727 -4.51734 0.698197 -3.51861 
360 2 63.55 1.101 -4.37317 0.250971 1.101 -4.37317 0.250971 -3.60856 
601 1 91.22 6.96494 -9.20796 4.87909 6.96494 -9.20796 4.87909 -5.53677 
702 2 63.55 6.08012 -5.56957 0.0598312 6.08012 -5.56957 0.0598312 -3.56528 
310 1 91.22 6.86647 -7.79552 2.12144 6.86647 -7.79552 2.12144 -6.27321 
337 1 91.22 5.62308 -5.0865 2.91351 5.62308 -5.0865 2.91351 -6.47509 
506 1 91.22 8.2997 -5.15921 1.43625 8.2997 -5.15921 1.43625 -6.41221 
716 1 91.22 -7.70834 -3.66705 5.10598 -7.70834 -3.66705 5.10598 -6.21074 
814 2 63.55 -7.10149 -3.74646 0.435105 -7.10149 -3.74646 0.435105 -3.60085 
227 2 63.55 -8.22726 -2.90737 2.54558 -8.22726 -2.90737 2.54558 -3.5746 
609 1 91.22 -6.56218 -1.11431 1.00319 -6.56218 -1.11431 1.00319 -6.34687 
828 2 63.55 -5.74892 -2.78595 2.95858 -5.74892 -2.78595 2.95858 -3.6335 
25 1 91.22 -7.27127 -0.666783 4.01134 -7.27127 -0.666783 4.01134 -6.42923 
651 1 91.22 -1.63485 -4.03542 1.66856 -1.63485 -4.03542 1.66856 -6.50205 
46 2 63.55 -3.2375 -3.25175 3.69925 -3.2375 -3.25175 3.69925 -3.65032 
12 1 91.22 -1.78175 -0.886959 0.983063 -1.78175 -0.886959 0.983063 -6.20393 
201 2 63.55 -4.04217 -2.35029 1.13718 -4.04217 -2.35029 1.13718 -3.59043 
808 1 91.22 -3.91649 -0.412639 3.15581 -3.91649 -0.412639 3.15581 -6.33189 
144 2 63.55 -0.644122 -1.94478 3.19372 -0.644122 -1.94478 3.19372 -3.70612 
93 1 91.22 -0.732347 -4.19168 5.07753 -0.732347 -4.19168 5.07753 -6.42994 
290 2 63.55 5.31991 -1.82053 4.09695 5.31991 -1.82053 4.09695 -3.52658 
330 1 91.22 1.35065 -4.20712 2.95869 1.35065 -4.20712 2.95869 -6.1589 
395 2 63.55 3.80379 -2.83312 2.38509 3.80379 -2.83312 2.38509 -3.67364 
523 2 63.55 0.978193 -1.99571 1.45929 0.978193 -1.99571 1.45929 -3.52552 
150 1 91.22 2.14535 -1.32249 3.90101 2.14535 -1.32249 3.90101 -6.31175 
597 1 91.22 3.53882 -3.56374 5.27578 3.53882 -3.56374 5.27578 -6.30538 
783 2 63.55 6.38294 -3.86379 5.27399 6.38294 -3.86379 5.27399 -3.56168 
343 1 91.22 5.86892 -3.01815 0.473348 5.86892 -3.01815 0.473348 -6.23021 
635 2 63.55 -8.91311 -3.68243 -1.78614 -8.91311 -3.68243 -1.78614 -3.64906 
53 2 63.55 -2.40576 -1.61951 5.22442 -2.40576 -1.61951 5.22442 -3.5373 
44 1 91.22 1.51981 -12.4445 -5.33227 1.51981 -12.4445 -5.33227 -5.56785 
167 2 63.55 8.98172 -9.703 2.76751 8.98172 -9.703 2.76751 -2.91257 
861 1 91.22 -9.00585 -5.55324 0.49164 -9.00585 -5.55324 0.49164 -6.35364 
503 2 63.55 -2.40053 -5.00378 -5.31781 -2.40053 -5.00378 -5.31781 -3.55504 
109 2 63.55 -6.71426 -9.45809 8.16071 -6.71426 -9.45809 8.16071 -3.0238 
669 1 91.22 -6.90442 -11.2021 5.90555 -6.90442 -11.2021 5.90555 -5.34158 
111 2 63.55 7.28972 -2.68155 11.3159 7.28972 -2.68155 11.3159 -2.72795 
64 2 63.55 -4.49722 -10.0361 7.16268 -4.49722 -10.0361 7.16268 -3.23956 
172 2 63.55 -1.81667 -11.8781 6.98386 -1.81667 -11.8781 6.98386 -2.53514 
598 2 63.55 -4.65613 -9.14691 9.58453 -4.65613 -9.14691 9.58453 -2.81875 
480 2 63.55 -2.22908 -9.93976 5.72144 -2.22908 -9.93976 5.72144 -3.38702 
399 1 91.22 0.553189 -9.85953 6.85485 0.553189 -9.85953 6.85485 -5.91493 
351 1 91.22 3.80047 -9.57732 6.40339 3.80047 -9.57732 6.40339 -5.71036 
542 2 63.55 2.44003 -9.07633 8.86865 2.44003 -9.07633 8.86865 -2.72468 
89 2 63.55 -6.11401 -8.48133 5.87062 -6.11401 -8.48133 5.87062 -3.52169 
332 2 63.55 -6.91207 -7.59796 9.9755 -6.91207 -7.59796 9.9755 -2.89735 
157 1 91.22 -7.87169 -6.96765 7.56406 -7.87169 -6.96765 7.56406 -5.7716 
130 2 63.55 -8.74111 -5.69243 9.71262 -8.74111 -5.69243 9.71262 -2.87259 
206 2 63.55 -6.11053 -4.67068 7.00397 -6.11053 -4.67068 7.00397 -3.53956 
115 2 63.55 -6.53315 -5.10224 9.26453 -6.53315 -5.10224 9.26453 -3.39898 
181 1 91.22 -4.85778 -7.08639 8.13029 -4.85778 -7.08639 8.13029 -6.21138 
590 2 63.55 -8.70867 -4.43963 7.4659 -8.70867 -4.43963 7.4659 -3.43514 
736 1 91.22 -2.25639 -9.13289 8.28828 -2.25639 -9.13289 8.28828 -5.62029 
715 2 63.55 -3.67495 -8.01786 5.85604 -3.67495 -8.01786 5.85604 -3.57707 
845 1 91.22 -3.45081 -5.18419 6.21042 -3.45081 -5.18419 6.21042 -6.29889 
296 1 91.22 -3.73154 -4.85965 9.99257 -3.73154 -4.85965 9.99257 -6.19625 
376 2 63.55 -2.80036 -7.64687 10.402 -2.80036 -7.64687 10.402 -3.13262 
327 2 63.55 -2.11329 -6.4705 8.30473 -2.11329 -6.4705 8.30473 -3.65902 
796 1 91.22 -0.863775 -7.34459 5.94967 -0.863775 -7.34459 5.94967 -6.49986 
49 1 91.22 0.0658347 -8.14674 9.37265 0.0658347 -8.14674 9.37265 -5.43201 
274 1 91.22 0.473627 -5.38336 7.84068 0.473627 -5.38336 7.84068 -6.20169 
504 2 63.55 1.94836 -7.50189 7.19758 1.94836 -7.50189 7.19758 -3.50927 
502 1 91.22 2.81445 -5.72678 9.96612 2.81445 -5.72678 9.96612 -5.84616 
377 2 63.55 3.04195 -5.10254 7.23498 3.04195 -5.10254 7.23498 -3.47898 
524 2 63.55 4.14891 -7.27148 8.30398 4.14891 -7.27148 8.30398 -3.27003 
403 2 63.55 6.04349 -6.441 9.88417 6.04349 -6.441 9.88417 -2.7896 
11 1 91.22 6.61601 -8.12914 7.51124 6.61601 -8.12914 7.51124 -5.21419 
413 2 63.55 8.3235 -6.01702 7.93199 8.3235 -6.01702 7.93199 -3.18718 
257 1 91.22 5.66347 -4.83863 7.73916 5.66347 -4.83863 7.73916 -6.41043 
832 1 91.22 -4.77161 -0.149014 11.2326 -4.77161 -0.149014 11.2326 -6.28556 
188 1 91.22 4.34975 -6.79805 5.51604 4.34975 -6.79805 5.51604 -6.33014 
285 2 63.55 -8.7503 -3.21966 9.63354 -8.7503 -3.21966 9.63354 -3.12093 
730 2 63.55 -7.04698 -2.67857 7.97404 -7.04698 -2.67857 7.97404 -3.47476 
50 2 63.55 -8.59278 -0.83567 8.44914 -8.59278 -0.83567 8.44914 -3.48836 
491 2 63.55 -5.45879 -2.65386 10.5177 -5.45879 -2.65386 10.5177 -3.34958 