LAMMPS (5 Jun 2019)
Reading data file ...
  orthogonal box = (-49.9863 -49.9863 -19.9973) to (49.9863 49.9863 109.997)
  3 by 3 by 5 MPI processor grid
  reading atoms ...
  12500 atoms
  reading velocities ...
  12500 velocities
  read_data CPU = 0.409616 secs
4473 atoms in group g1
8027 atoms in group g2
1261 atoms in group bottomLayer
0 atoms in group film
4473 atoms in group film_g1
8027 atoms in group film_g2
WARNING: Shell command 'mkdir' failed with error 'File exists' (../input.cpp:1293)
0 atoms in group myG
Reading data file ...
  orthogonal box = (-49.9863 -49.9863 -19.9973) to (49.9863 49.9863 109.997)
  3 by 3 by 5 MPI processor grid
  reading atoms ...
  884 atoms
  reading velocities ...
  884 velocities
  read_data CPU = 0.0266709 secs
12500 atoms in group subG
53
Displacing atoms ...
Resetting atom IDs ...
Neighbor list info ...
  update every 1 steps, delay 10 steps, check yes
  max neighbors/atom: 2000, page size: 100000
  master list distance cutoff = 8.5
  ghost atom cutoff = 8.5
  binsize = 4.25, bins = 24 24 31
  5 neighbor lists, perpetual/occasional/extra = 1 4 0
  (1) pair eam/alloy, perpetual
      attributes: half, newton on
      pair build: half/bin/atomonly/newton
      stencil: half/bin/3d/newton
      bin: standard
  (2) compute rdf, occasional, copy from (1)
      attributes: half, newton on
      pair build: copy
      stencil: none
      bin: none
  (3) compute rdf, occasional, copy from (1)
      attributes: half, newton on
      pair build: copy
      stencil: none
      bin: none
  (4) compute rdf, occasional, copy from (1)
      attributes: half, newton on
      pair build: copy
      stencil: none
      bin: none
  (5) compute rdf, occasional, copy from (1)
      attributes: half, newton on
      pair build: copy
      stencil: none
      bin: none
Setting atom values ...
  1261 settings made for vz
Setting up Verlet run ...
  Unit style    : metal
  Current step  : 0
  Time step     : 0.001
Per MPI rank memory allocation (min/avg/max) = 0.6606 | 2.912 | 4.86 Mbytes
Step PotEng Press Pxx Pyy Pzz Lx Ly Lz Volume Temp 
       0    -58680.58   -2953.1988   -3603.9229   -3326.1166   -1929.5569    99.972562    99.972562    129.99451    1299231.9    299.37191 
     100   -58751.884   -2017.6524   -2679.4808   -2637.8379   -735.63852    99.972562    99.972562    129.99451    1299231.9    338.79148 
     200   -58754.828   -1985.8799   -2651.2955   -2539.1122   -767.23211    99.972562    99.972562    129.99451    1299231.9       337.32 
     300   -58756.988   -1964.9788   -2642.7827   -2567.0776   -685.07596    99.972562    99.972562    129.99451    1299231.9    336.41146 
     400   -58766.265   -1747.4848   -2659.9213   -2209.7926   -372.74059    99.972562    99.972562    129.99451    1299231.9    340.68741 
     500   -58770.693   -1207.0642   -2182.2617   -1771.5594    332.62854    99.972562    99.972562    129.99451    1299231.9    342.42709 
     600   -58776.065   -1112.9957   -1999.5919   -1755.2495    415.85429    99.972562    99.972562    129.99451    1299231.9    344.20287 
     700   -58777.679   -957.60481   -1921.3266   -1586.6409    635.15315    99.972562    99.972562    129.99451    1299231.9    344.72258 
     800   -58773.754   -670.27781   -1614.7095   -1346.3929    950.26896    99.972562    99.972562    129.99451    1299231.9    341.40589 
     900   -58782.833   -510.61996   -1495.7647   -1126.0105    1089.9152    99.972562    99.972562    129.99451    1299231.9     345.7271 
    1000   -58775.149   -508.48014   -1431.3228   -1089.1639    995.04634    99.972562    99.972562    129.99451    1299231.9    340.25669 
    1100   -58782.486   -507.52685     -1471.86   -1031.8045    981.08402    99.972562    99.972562    129.99451    1299231.9    343.42371 
    1200   -58784.813   -764.74737   -1598.1893   -1377.0453    680.99254    99.972562    99.972562    129.99451    1299231.9    344.04348 
    1300   -58781.022   -1218.7397   -1989.7593   -1815.2256    148.76574    99.972562    99.972562    129.99451    1299231.9    340.79081 
    1400   -58780.223   -1677.1575   -2459.4373   -2151.6901   -420.34497    99.972562    99.972562    129.99451    1299231.9    339.49279 
    1500   -58781.942   -1937.6722   -2706.3393   -2348.7788   -757.89857    99.972562    99.972562    129.99451    1299231.9    339.42621 
    1600   -58783.453   -2015.2191   -2747.1242   -2448.6965   -849.83669    99.972562    99.972562    129.99451    1299231.9    339.50628 
    1700   -58787.015   -2002.9901   -2776.7328   -2408.4913   -823.74614    99.972562    99.972562    129.99451    1299231.9    340.67552 
    1800   -58783.313   -1967.7388   -2803.5617   -2419.4406   -680.21396    99.972562    99.972562    129.99451    1299231.9    337.97357 
    1900    -58781.64   -2001.4433   -2688.5641   -2506.9806   -808.78529    99.972562    99.972562    129.99451    1299231.9    336.14428 
    2000   -58782.195   -2050.6496   -2793.6017   -2573.1013   -785.24595    99.972562    99.972562    129.99451    1299231.9    336.02748 
    2100   -58787.418   -1892.7946   -2675.0747    -2459.236    -544.0731    99.972562    99.972562    129.99451    1299231.9    338.58672 
    2200   -58791.139   -1725.0291   -2552.7923   -2276.3628   -345.93233    99.972562    99.972562    129.99451    1299231.9    340.18801 
    2300   -58789.088   -1393.4124    -2243.613   -1968.0429    31.418863    99.972562    99.972562    129.99451    1299231.9    338.31736 
    2400   -58792.416   -1033.9813   -1859.3423    -1588.853    346.25133    99.972562    99.972562    129.99451    1299231.9    340.32745 
    2500   -58792.179   -814.66141   -1733.1345   -1365.4081    654.55843    99.972562    99.972562    129.99451    1299231.9    339.46991 
    2600   -58795.321   -702.79262   -1578.0514   -1294.3006     763.9741    99.972562    99.972562    129.99451    1299231.9    340.45106 
    2700     -58794.4   -773.62765   -1745.3725   -1337.7737    762.26327    99.972562    99.972562    129.99451    1299231.9    338.98905 
    2800    -58794.26   -814.19912   -1744.1359   -1390.7148     692.2533    99.972562    99.972562    129.99451    1299231.9    338.14982 
    2900   -58795.101   -918.65535    -1807.644   -1461.5072    513.18516    99.972562    99.972562    129.99451    1299231.9    338.05075 
    3000   -58798.654   -1038.8376   -1936.9433   -1562.6093    383.03994    99.972562    99.972562    129.99451    1299231.9    339.38857 
    3100   -58800.313   -1159.9464   -2042.8827   -1634.7683    197.81177    99.972562    99.972562    129.99451    1299231.9    339.49661 
    3200    -58800.57   -1332.7518   -2157.5896   -1842.4781    1.8121819    99.972562    99.972562    129.99451    1299231.9    338.86444 
    3300   -58807.109   -1571.5589   -2365.0225   -2059.4767   -290.17762    99.972562    99.972562    129.99451    1299231.9    342.00965 
    3400   -58801.596   -1804.1048   -2597.2478   -2304.4337   -510.63279    99.972562    99.972562    129.99451    1299231.9    338.20861 
    3500   -58795.942   -1992.5909   -2764.3754   -2408.9362   -804.46116    99.972562    99.972562    129.99451    1299231.9    334.40191 
    3600   -58798.386   -2080.2385   -2825.2401   -2563.7347   -851.74064    99.972562    99.972562    129.99451    1299231.9    335.29858 
    3700   -58798.002   -2049.0312   -2800.7888   -2553.5642   -792.74074    99.972562    99.972562    129.99451    1299231.9    334.16824 
    3800   -58806.506   -1940.5325   -2768.9335   -2426.4324   -626.23142    99.972562    99.972562    129.99451    1299231.9     338.4582 
    3900   -58805.219   -1731.1056   -2548.6503   -2323.9606   -320.70582    99.972562    99.972562    129.99451    1299231.9    337.32657 
    4000   -58811.639   -1539.9267   -2359.7174   -2097.4571   -162.60582    99.972562    99.972562    129.99451    1299231.9    340.36429 
    4100   -58809.839   -1436.6166   -2309.2334   -2001.4611   0.84467218    99.972562    99.972562    129.99451    1299231.9    338.36481 
    4200   -58808.156   -1285.9694   -2142.4239   -1904.7626    189.27836    99.972562    99.972562    129.99451    1299231.9    336.97259 
    4300   -58811.138   -1187.6327   -2051.9503   -1840.9089    329.96109    99.972562    99.972562    129.99451    1299231.9    338.34381 
    4400   -58811.468   -1045.0537   -1943.2632     -1639.61    447.71217    99.972562    99.972562    129.99451    1299231.9    338.02647 
    4500   -58815.757   -924.94608   -1831.9721   -1530.9055     588.0393    99.972562    99.972562    129.99451    1299231.9    340.12661 
    4600   -58811.884   -871.01098   -1785.2786   -1406.8131    579.05881    99.972562    99.972562    129.99451    1299231.9     337.5821 
    4700   -58816.275   -920.08672   -1774.3163   -1474.0074    488.06354    99.972562    99.972562    129.99451    1299231.9    339.28031 
    4800   -58809.326   -1047.6979   -1983.3603   -1575.2532    415.51982    99.972562    99.972562    129.99451    1299231.9    334.44665 
    4900   -58812.517   -1308.9902   -2096.8846   -1864.4233     34.33743    99.972562    99.972562    129.99451    1299231.9    335.97022 
    5000   -58812.542   -1411.4918   -2221.3849   -1961.5885   -51.502154    99.972562    99.972562    129.99451    1299231.9     335.5988 
    5100   -58813.617   -1639.9091   -2472.2346   -2124.4017   -323.09091    99.972562    99.972562    129.99451    1299231.9    335.59378 
    5200   -58814.027   -1672.1533   -2496.0662   -2161.5507   -358.84311    99.972562    99.972562    129.99451    1299231.9    335.33343 
    5300     -58813.3   -1758.2303    -2545.298   -2333.2501   -396.14287    99.972562    99.972562    129.99451    1299231.9    334.53625 
    5400   -58813.648    -1844.682   -2628.6952   -2392.5186   -512.83219    99.972562    99.972562    129.99451    1299231.9    334.16742 
    5500   -58814.368   -1840.2893   -2707.3736   -2287.9007   -525.59358    99.972562    99.972562    129.99451    1299231.9    334.15885 
    5600   -58817.405   -1842.7806   -2695.5826   -2358.4428   -474.31642    99.972562    99.972562    129.99451    1299231.9    335.64949 
    5700   -58815.594   -1770.5247   -2542.7437   -2335.2415   -433.58874    99.972562    99.972562    129.99451    1299231.9    334.43057 
    5800   -58820.809   -1582.9845   -2404.1012    -2173.317   -171.53542    99.972562    99.972562    129.99451    1299231.9    337.17029 
    5900   -58815.885   -1354.6474   -2199.2162   -1935.2259    70.499811    99.972562    99.972562    129.99451    1299231.9    333.55984 
    6000   -58820.813   -1245.7416   -2164.7048   -1722.1347    149.61474    99.972562    99.972562    129.99451    1299231.9    335.70438 
    6100    -58826.05   -1203.7161   -2081.5571   -1823.2215    293.63021    99.972562    99.972562    129.99451    1299231.9    338.48229 
    6200   -58820.803   -1153.4595   -1952.3847   -1780.3948    272.40088    99.972562    99.972562    129.99451    1299231.9    334.98756 
    6300    -58821.59   -1096.2771   -1928.1981   -1674.9054    314.27217    99.972562    99.972562    129.99451    1299231.9    334.79853 
    6400   -58820.216   -1120.7099   -2011.9939    -1688.647    338.51136    99.972562    99.972562    129.99451    1299231.9     333.4503 
    6500   -58822.327   -1164.2137   -2004.1773   -1800.3244    311.86069    99.972562    99.972562    129.99451    1299231.9    333.99684 
    6600   -58824.178    -1207.768   -2051.4439   -1760.3584    188.49834    99.972562    99.972562    129.99451    1299231.9    334.75958 
    6700   -58826.113   -1224.6005   -2059.7358   -1735.9954    121.92978    99.972562    99.972562    129.99451    1299231.9    335.39284 
    6800   -58827.331   -1436.8213   -2232.7096   -1980.6433   -97.111222    99.972562    99.972562    129.99451    1299231.9    335.47254 
    6900   -58826.486   -1565.4304   -2390.6248   -2109.2105   -196.45599    99.972562    99.972562    129.99451    1299231.9    334.47396 
    7000   -58831.963   -1699.4535   -2506.1188   -2178.3082   -413.93359    99.972562    99.972562    129.99451    1299231.9    337.41115 
    7100   -58831.355   -1780.0005   -2576.3072   -2210.9311   -552.76308    99.972562    99.972562    129.99451    1299231.9    336.68981 
    7200   -58839.906   -1871.8542   -2606.5285   -2374.0195   -635.01475    99.972562    99.972562    129.99451    1299231.9    341.36925 
    7300   -58849.551   -1849.7373    -2663.862   -2411.7505   -473.59955    99.972562    99.972562    129.99451    1299231.9    346.06034 
    7400   -58845.733   -1788.7041   -2596.2558   -2200.8671   -568.98945    99.972562    99.972562    129.99451    1299231.9    343.41653 
    7500   -58845.574   -1699.3363   -2475.5968   -2220.5452   -401.86701    99.972562    99.972562    129.99451    1299231.9    342.22572 
    7600   -58856.092   -1602.5805   -2424.8784   -2082.0679   -300.79518    99.972562    99.972562    129.99451    1299231.9    348.08941 
    7700   -58854.734   -1454.0457   -2268.3322   -2020.7156    -73.08929    99.972562    99.972562    129.99451    1299231.9    346.90672 
    7800   -58856.433   -1318.0556   -2182.5399   -1859.7435    88.116679    99.972562    99.972562    129.99451    1299231.9    347.34151 
    7900   -58862.279   -1193.3582   -2137.0889   -1776.1858    333.20001    99.972562    99.972562    129.99451    1299231.9    350.41687 
    8000   -58861.312   -1044.1386   -1920.8335   -1649.5764    437.99405    99.972562    99.972562    129.99451    1299231.9    349.75377 
    8100    -58861.58   -963.88129   -1829.7773   -1676.1695    614.30293    99.972562    99.972562    129.99451    1299231.9    349.04516 
    8200   -58863.818   -889.08471   -1775.9793   -1582.2679    690.99309    99.972562    99.972562    129.99451    1299231.9    349.55643 
    8300   -58864.846   -798.33531   -1727.4318   -1485.4652    817.89102    99.972562    99.972562    129.99451    1299231.9    349.20083 
    8400   -58863.887   -744.69039   -1692.7335   -1429.0922    887.75452    99.972562    99.972562    129.99451    1299231.9    348.22835 
    8500   -58865.018    -845.6811   -1784.0654   -1495.5513    742.57342    99.972562    99.972562    129.99451    1299231.9    348.00568 
    8600   -58866.609   -1044.6341   -1961.0596   -1646.2905    473.44774    99.972562    99.972562    129.99451    1299231.9    348.18778 
    8700   -58862.248   -1107.3744   -1924.8646   -1704.3571    307.09861    99.972562    99.972562    129.99451    1299231.9    345.18959 
    8800   -58858.957   -1158.6403    -2019.109   -1720.2563     263.4442    99.972562    99.972562    129.99451    1299231.9    342.63978 
    8900   -58863.698   -1187.9011   -2062.3418   -1753.6984    252.33707    99.972562    99.972562    129.99451    1299231.9    345.04294 
    9000   -58858.712   -1140.0487   -2009.3879   -1696.8082    286.04993    99.972562    99.972562    129.99451    1299231.9    341.55381 
    9100   -58864.361   -1261.9585   -2109.9483   -1710.8854    34.958091    99.972562    99.972562    129.99451    1299231.9    344.28264 
    9200   -58857.839   -1303.7116    -2073.128   -1925.6286    87.621932    99.972562    99.972562    129.99451    1299231.9    339.70424 
    9300    -58864.41   -1299.9217   -2073.6261   -1878.1566    52.017434    99.972562    99.972562    129.99451    1299231.9    342.87546 
    9400   -58862.337   -1313.5415   -2152.2195   -1807.7094    19.304484    99.972562    99.972562    129.99451    1299231.9    341.40471 
    9500   -58862.133   -1329.5768   -2172.1536   -1824.4384    7.8617692    99.972562    99.972562    129.99451    1299231.9    340.84061 
    9600   -58856.796   -1241.4901   -2033.5695   -1738.7391    47.838202    99.972562    99.972562    129.99451    1299231.9    337.42293 
    9700    -58864.72    -1186.903    -1992.938   -1726.6159    158.84482    99.972562    99.972562    129.99451    1299231.9    341.37508 
    9800   -58861.872   -1071.9776   -1922.0396   -1605.2989    311.40566    99.972562    99.972562    129.99451    1299231.9     339.1834 
    9900   -58863.002   -1019.3118   -1825.3465   -1533.4484    300.85967    99.972562    99.972562    129.99451    1299231.9    339.45177 
   10000   -58863.782   -942.41724   -1676.1096   -1457.8255     306.6834    99.972562    99.972562    129.99451    1299231.9    339.29715 
   10100   -58866.394   -839.64894   -1643.0259   -1352.5551    476.63417    99.972562    99.972562    129.99451    1299231.9    340.03268 
   10200   -58872.268   -854.07441   -1672.1251   -1367.1081    477.01004    99.972562    99.972562    129.99451    1299231.9    342.96478 
   10300   -58876.001   -913.37011   -1656.7071    -1415.922    332.51885    99.972562    99.972562    129.99451    1299231.9     344.5367 
   10400   -58871.673   -990.97305   -1676.8041   -1514.5041    218.38912    99.972562    99.972562    129.99451    1299231.9    341.42416 
   10500   -58877.687   -1132.6734   -1826.4161   -1639.9741    68.370098    99.972562    99.972562    129.99451    1299231.9     344.1274 
   10600   -58876.572   -1186.7047   -1863.9846    -1621.325    -74.80453    99.972562    99.972562    129.99451    1299231.9    342.58355 
   10700    -58875.55   -1254.0199   -1957.0029   -1782.3939   -22.662897    99.972562    99.972562    129.99451    1299231.9    341.31423 
   10800   -58878.549   -1296.5267   -2104.4706   -1749.3487   -35.760892    99.972562    99.972562    129.99451    1299231.9    342.45198 
   10900    -58888.72   -1456.8239   -2216.6448   -1890.4358   -263.39101    99.972562    99.972562    129.99451    1299231.9    348.00302 
   11000   -58879.097   -1496.2349   -2108.9149   -2005.5181   -374.27161    99.972562    99.972562    129.99451    1299231.9    342.33316 
   11100   -58875.932   -1426.6839   -2008.7421   -2006.3461    -264.9633    99.972562    99.972562    129.99451    1299231.9    339.92532 
   11200   -58878.867   -1513.1202     -2029.19   -2088.9169   -421.25361    99.972562    99.972562    129.99451    1299231.9    340.63289 
   11300   -58887.735   -1562.4355   -2142.6452    -2157.734    -386.9271    99.972562    99.972562    129.99451    1299231.9    345.07322 
   11400   -58884.669   -1521.6146   -2141.5831   -2048.6672   -374.59346    99.972562    99.972562    129.99451    1299231.9    342.63744 
   11500   -58891.789   -1515.5828   -2216.0806   -1990.7261   -339.94164    99.972562    99.972562    129.99451    1299231.9    346.11849 
   11600   -58889.638   -1357.5684    -2059.218   -1779.2691   -234.21802    99.972562    99.972562    129.99451    1299231.9    344.08795 
   11700   -58889.547   -1265.1732   -1956.2837   -1757.9604   -81.275615    99.972562    99.972562    129.99451    1299231.9    343.50063 
   11800   -58889.618   -1284.1287   -1948.6297   -1754.8285   -148.92785    99.972562    99.972562    129.99451    1299231.9    342.50602 
   11900    -58889.84   -1239.0675   -1964.4152   -1707.1634   -45.624054    99.972562    99.972562    129.99451    1299231.9    341.70548 
   12000   -58892.375   -1244.5223   -1959.1506   -1740.8867   -33.529653    99.972562    99.972562    129.99451    1299231.9    342.67437 
   12100   -58897.572   -1322.1196   -2009.0961   -1810.9081   -146.35446    99.972562    99.972562    129.99451    1299231.9    344.99186 
   12200   -58896.638   -1272.8204   -1900.1738   -1757.5877   -160.69966    99.972562    99.972562    129.99451    1299231.9    343.69257 
   12300   -58895.441   -1313.3152   -1965.8122   -1695.5208   -278.61256    99.972562    99.972562    129.99451    1299231.9    342.05444 
   12400   -58890.002   -1262.4824   -1988.9982   -1780.4092   -18.039957    99.972562    99.972562    129.99451    1299231.9    338.19568 
   12500   -58896.922   -1312.7725    -2052.993   -1753.2184   -132.10611    99.972562    99.972562    129.99451    1299231.9    341.55106 
   12600   -58898.126   -1495.1914     -2160.32    -1958.948   -366.30614    99.972562    99.972562    129.99451    1299231.9    341.61891 
   12700   -58896.541   -1569.8395   -2226.4452   -2023.5627   -459.51057    99.972562    99.972562    129.99451    1299231.9    339.70655 
   12800   -58895.733   -1630.8546   -2238.8672   -2166.9535   -486.74307    99.972562    99.972562    129.99451    1299231.9    339.18257 
   12900   -58899.073   -1595.0699   -2242.2799   -2095.7048    -447.2251    99.972562    99.972562    129.99451    1299231.9    340.64363 
   13000   -58898.233   -1532.0085   -2204.6102   -2021.3131   -370.10235    99.972562    99.972562    129.99451    1299231.9    339.38418 
   13100   -58898.685   -1485.7338   -2138.2752   -2078.9818   -239.94437    99.972562    99.972562    129.99451    1299231.9     339.0398 
   13200   -58899.218   -1505.8644   -2139.0912   -1988.8712   -389.63091    99.972562    99.972562    129.99451    1299231.9    338.72982 
   13300   -58904.502   -1418.2302   -2036.4828   -1925.8722   -292.33555    99.972562    99.972562    129.99451    1299231.9    341.04104 
   13400   -58902.921   -1403.5677   -2148.3938   -1925.6666    -136.6427    99.972562    99.972562    129.99451    1299231.9    338.85446 
   13500   -58909.294   -1355.3372   -2027.0785   -1834.3844   -204.54883    99.972562    99.972562    129.99451    1299231.9    341.66114 
   13600   -58911.316    -1369.302    -2084.632   -1903.0871   -120.18685    99.972562    99.972562    129.99451    1299231.9    342.02476 
   13700   -58913.267   -1240.5204   -2008.3665   -1744.2644    31.069651    99.972562    99.972562    129.99451    1299231.9    341.69972 
   13800   -58911.547   -1122.7117   -1762.7294   -1719.4753    114.06959    99.972562    99.972562    129.99451    1299231.9    340.08986 
   13900   -58917.675   -1134.8755   -1710.3519   -1677.9077   -16.367015    99.972562    99.972562    129.99451    1299231.9    342.87017 
   14000   -58919.711   -1134.0849   -1822.3482   -1662.1876     82.28104    99.972562    99.972562    129.99451    1299231.9    343.36087 
   14100   -58916.918   -1171.2724   -1820.3585    -1696.916    3.4572696    99.972562    99.972562    129.99451    1299231.9    341.08998 
   14200   -58911.899   -1223.4808   -1884.7388   -1741.8357   -43.868086    99.972562    99.972562    129.99451    1299231.9    337.47039 
   14300   -58915.788   -1250.8939    -1859.571   -1804.7014   -88.409476    99.972562    99.972562    129.99451    1299231.9     338.8057 
   14400   -58916.105   -1335.6712   -1998.3399   -1832.1801   -176.49347    99.972562    99.972562    129.99451    1299231.9    337.92632 
   14500   -58919.929   -1324.9355   -2001.0735   -1898.6139   -75.119007    99.972562    99.972562    129.99451    1299231.9    339.89571 
   14600   -58918.676   -1351.2959   -2065.2734   -1849.2747   -139.33956    99.972562    99.972562    129.99451    1299231.9    338.53184 
   14700   -58921.873   -1408.0244   -2111.9886   -1884.4762   -227.60851    99.972562    99.972562    129.99451    1299231.9    339.74154 
   14800    -58916.18   -1413.9349   -2069.1492   -1928.9517   -243.70374    99.972562    99.972562    129.99451    1299231.9    336.16062 
   14900   -58918.407   -1432.3828   -2060.1846    -2038.819   -198.14484    99.972562    99.972562    129.99451    1299231.9    336.78789 
   15000    -58925.19   -1424.2343   -2063.6703   -1981.3724   -227.66024    99.972562    99.972562    129.99451    1299231.9    340.07468 
   15100   -58920.965   -1354.6703   -2004.9871   -1927.9395   -131.08419    99.972562    99.972562    129.99451    1299231.9     336.9929 
   15200   -58921.187   -1363.7342   -1995.9414   -1910.7132   -184.54809    99.972562    99.972562    129.99451    1299231.9    336.53185 
   15300   -58924.149   -1328.3924   -1955.3081   -1866.8032   -163.06586    99.972562    99.972562    129.99451    1299231.9    337.83169 
   15400   -58928.939   -1241.5685   -1944.4755   -1775.4698   -4.7601989    99.972562    99.972562    129.99451    1299231.9    339.85494 
   15500   -58928.022   -1171.0322   -1788.5298   -1735.3433    10.776528    99.972562    99.972562    129.99451    1299231.9    338.71722 
   15600   -58931.683   -1163.3783   -1785.0383   -1763.9434    58.846801    99.972562    99.972562    129.99451    1299231.9    340.16469 
   15700    -58922.11   -1165.0188   -1859.0389   -1722.2927    86.275184    99.972562    99.972562    129.99451    1299231.9    333.68435 
   15800   -58926.838   -1157.7837   -1821.4786   -1669.1109    17.238377    99.972562    99.972562    129.99451    1299231.9     335.8783 
   15900   -58931.842    -1207.309   -1850.3327   -1793.4013    21.807059    99.972562    99.972562    129.99451    1299231.9    338.20832 
   16000   -58928.001   -1276.9675   -1938.1678   -1849.3518   -43.382805    99.972562    99.972562    129.99451    1299231.9    335.11259 
   16100     -58923.9   -1372.7822   -1998.0724    -1884.139   -236.13523    99.972562    99.972562    129.99451    1299231.9    331.91283 
   16200   -58929.016   -1404.5733    -2021.964   -1913.0566   -278.69928    99.972562    99.972562    129.99451    1299231.9    333.89613 
   16300   -58927.979   -1377.8595   -2060.8188   -1880.0305   -192.72922    99.972562    99.972562    129.99451    1299231.9    332.38276 
   16400    -58935.88    -1413.779   -2061.0137   -1907.8517   -272.47162    99.972562    99.972562    129.99451    1299231.9    335.92394 
   16500   -58934.639    -1427.405   -2050.2075   -1906.4677   -325.53985    99.972562    99.972562    129.99451    1299231.9    334.90169 
   16600   -58932.096   -1449.3305   -2150.1596   -1840.7802   -357.05179    99.972562    99.972562    129.99451    1299231.9    332.45983 
   16700   -58936.473   -1414.3396   -2055.7852   -1839.2336   -347.99994    99.972562    99.972562    129.99451    1299231.9    334.28126 
   16800   -58932.302   -1437.6581   -2155.3424   -1857.5913   -300.04063    99.972562    99.972562    129.99451    1299231.9    331.02631 
   16900    -58935.34   -1343.1938   -2020.7327   -1809.1451   -199.70346    99.972562    99.972562    129.99451    1299231.9      332.236 
   17000   -58932.341    -1342.985   -2011.6749   -1865.9504   -151.32982    99.972562    99.972562    129.99451    1299231.9    329.56565 
   17100   -58932.812   -1272.3564   -1948.8574   -1797.5337   -70.678089    99.972562    99.972562    129.99451    1299231.9    329.34669 
   17200   -58939.939   -1281.1732   -1957.8303   -1776.9599   -108.72934    99.972562    99.972562    129.99451    1299231.9    332.84482 
   17300   -58932.477   -1246.2371    -1954.572   -1743.8646   -40.274575    99.972562    99.972562    129.99451    1299231.9    328.30295 
   17400   -58942.335   -1297.7184   -2023.0328   -1801.6577   -68.464889    99.972562    99.972562    129.99451    1299231.9    333.29857 
   17500   -58937.003   -1348.1906   -2035.7215   -1844.7559   -164.09448    99.972562    99.972562    129.99451    1299231.9    329.88646 
   17600   -58939.256   -1307.8511   -2012.1713   -1758.5802   -152.80195    99.972562    99.972562    129.99451    1299231.9    330.50155 
   17700   -58940.837   -1330.4598   -2022.8024   -1789.6393   -178.93752    99.972562    99.972562    129.99451    1299231.9    330.64001 
   17800   -58933.888   -1345.2637     -2039.83   -1751.8703   -244.09079    99.972562    99.972562    129.99451    1299231.9    326.16212 
   17900   -58946.185     -1467.42   -2157.9889   -1911.7391   -332.53206    99.972562    99.972562    129.99451    1299231.9    333.17177 
   18000   -58940.007   -1482.8775   -2088.9858    -2001.359   -358.28769    99.972562    99.972562    129.99451    1299231.9    328.70733 
   18100    -58940.07   -1456.6926   -2067.5232   -1937.4216   -365.13316    99.972562    99.972562    129.99451    1299231.9    328.60491 
   18200   -58944.836   -1510.8398   -2120.5405   -1974.4222   -437.55686    99.972562    99.972562    129.99451    1299231.9    330.78145 
   18300   -58942.019    -1446.816   -2087.3801    -1878.063   -375.00491    99.972562    99.972562    129.99451    1299231.9    328.70361 
   18400   -58947.617   -1436.8796   -2085.5635   -1880.3577   -344.71763    99.972562    99.972562    129.99451    1299231.9    331.03808 
   18500   -58944.992    -1464.643    -2115.657   -1933.4606   -344.81137    99.972562    99.972562    129.99451    1299231.9    328.91109 
   18600   -58948.429     -1437.33    -2131.077   -1941.3415   -239.57141    99.972562    99.972562    129.99451    1299231.9    330.29925 
   18700   -58944.964   -1293.9373   -1938.4236   -1843.0732   -100.31504    99.972562    99.972562    129.99451    1299231.9    328.08093 
   18800   -58947.897   -1244.7381   -1986.7348   -1751.0279    3.5484801    99.972562    99.972562    129.99451    1299231.9    328.49848 
   18900   -58948.048   -1206.4161   -1920.3647    -1776.052    77.168429    99.972562    99.972562    129.99451    1299231.9    328.20465 
   19000   -58942.834   -1100.8444   -1695.0252   -1649.9678    42.459837    99.972562    99.972562    129.99451    1299231.9    324.78568 
   19100   -58950.733   -1102.4587   -1762.6204   -1657.1672    112.41164    99.972562    99.972562    129.99451    1299231.9    328.72002 
   19200   -58950.238   -1137.5964   -1868.0982   -1694.5516    149.86072    99.972562    99.972562    129.99451    1299231.9    328.38146 
   19300   -58946.035   -1142.3892   -1803.1208   -1677.5983    53.551577    99.972562    99.972562    129.99451    1299231.9    325.43713 
   19400   -58949.326   -1141.9321   -1782.3823   -1702.0562    58.642038    99.972562    99.972562    129.99451    1299231.9    326.86363 
   19500    -58950.04   -1218.2969   -1920.4391     -1728.61   -5.8416704    99.972562    99.972562    129.99451    1299231.9    326.99346 
   19600   -58951.233   -1162.2391   -1910.2328   -1673.2282    96.743842    99.972562    99.972562    129.99451    1299231.9    327.15473 
   19700    -58951.02   -1254.2089   -1916.4556   -1757.7538   -88.417247    99.972562    99.972562    129.99451    1299231.9    326.71871 
   19800    -58955.04   -1304.8658   -2051.0412   -1715.6631   -147.89317    99.972562    99.972562    129.99451    1299231.9    328.46919 
   19900   -58951.067   -1344.3179   -2109.5308   -1731.2566    -192.1663    99.972562    99.972562    129.99451    1299231.9    325.89431 
   20000    -58954.54   -1355.8635   -2056.2849   -1792.0473   -219.25815    99.972562    99.972562    129.99451    1299231.9    327.66457 
   20100   -58951.901   -1450.3544   -2092.7593   -1908.3515   -349.95243    99.972562    99.972562    129.99451    1299231.9    325.88236 
   20200   -58950.023   -1401.5131   -2028.0692    -1936.595   -239.87519    99.972562    99.972562    129.99451    1299231.9    324.34704 
   20300   -58955.439   -1418.5891    -2086.851   -1939.0934   -229.82294    99.972562    99.972562    129.99451    1299231.9    326.95516 
   20400   -58953.753   -1374.2395   -2108.0785   -1877.9722   -136.66777    99.972562    99.972562    129.99451    1299231.9    325.04209 
   20500   -58949.246   -1305.3124   -1963.8205   -1790.1035   -162.01313    99.972562    99.972562    129.99451    1299231.9    321.82872 
   20600   -58961.792   -1316.4771   -2020.3092   -1758.1081   -171.01396    99.972562    99.972562    129.99451    1299231.9     328.4854 
   20700   -58959.808   -1346.1761   -1959.3489    -1788.115   -291.06445    99.972562    99.972562    129.99451    1299231.9    326.75113 
   20800    -58957.43   -1380.5585   -2039.8203   -1894.1144   -207.74093    99.972562    99.972562    129.99451    1299231.9    324.75152 
   20900   -58954.196   -1377.1252    -2067.589   -1814.5811   -249.20565    99.972562    99.972562    129.99451    1299231.9    322.35596 
   21000   -58961.346   -1329.7339   -2011.9833   -1841.9306   -135.28791    99.972562    99.972562    129.99451    1299231.9    326.23745 
   21100   -58955.528   -1294.9413   -1939.8119   -1777.2046   -167.80722    99.972562    99.972562    129.99451    1299231.9    322.41824 
   21200   -58959.095   -1283.5069   -1975.8705    -1833.989   -40.661266    99.972562    99.972562    129.99451    1299231.9    324.09581 
   21300   -58958.971   -1234.0758   -1945.4509   -1766.7673    9.9908515    99.972562    99.972562    129.99451    1299231.9    323.49943 
   21400   -58959.571   -1272.7681    -1963.934   -1719.2501   -135.12015    99.972562    99.972562    129.99451    1299231.9    323.62455 
   21500   -58961.201   -1373.9535    -2032.732   -1884.6872   -204.44138    99.972562    99.972562    129.99451    1299231.9    323.74616 
   21600   -58964.282   -1403.6552    -2080.779    -1945.834   -184.35275    99.972562    99.972562    129.99451    1299231.9    325.18135 
   21700   -58960.413   -1364.7758   -1989.0473   -1872.2306    -233.0495    99.972562    99.972562    129.99451    1299231.9    322.61266 
   21800   -58962.001   -1446.1943   -2121.5078   -1905.4623   -311.61289    99.972562    99.972562    129.99451    1299231.9    322.95733 
   21900   -58968.673   -1438.1871   -2127.5177    -1904.336    -282.7076    99.972562    99.972562    129.99451    1299231.9    326.13262 
   22000   -58962.817   -1401.4846   -2045.9733   -1876.8895   -281.59106    99.972562    99.972562    129.99451    1299231.9    322.44532 
   22100   -58964.674   -1410.4049   -2066.6623   -1884.1612   -280.39133    99.972562    99.972562    129.99451    1299231.9    322.96923 
   22200   -58964.444   -1408.9365   -2030.7472   -1927.0034   -269.05888    99.972562    99.972562    129.99451    1299231.9    322.29835 
   22300   -58965.994   -1342.9575   -2017.7345   -1861.7548   -149.38321    99.972562    99.972562    129.99451    1299231.9    322.52951 
   22400   -58961.313   -1285.0367   -1892.6555    -1804.623   -157.83147    99.972562    99.972562    129.99451    1299231.9    319.57214 
   22500   -58968.826   -1296.9624   -1914.0831   -1888.0301   -88.773962    99.972562    99.972562    129.99451    1299231.9    323.55194 
   22600   -58964.445   -1209.9154   -1897.2803   -1740.8788    8.4128419    99.972562    99.972562    129.99451    1299231.9    320.11376 
   22700   -58968.418   -1194.7748    -1819.512   -1822.8309    58.018442    99.972562    99.972562    129.99451    1299231.9    321.90973 
   22800   -58968.957   -1304.2111   -1970.8703   -1864.2449   -77.518236    99.972562    99.972562    129.99451    1299231.9    322.09682 
   22900   -58968.722   -1266.7838   -1997.3988    -1787.037   -15.915796    99.972562    99.972562    129.99451    1299231.9    321.91488 
   23000   -58969.936   -1323.2517   -1934.4953   -1906.1915   -129.06833    99.972562    99.972562    129.99451    1299231.9    322.18157 
   23100   -58969.753   -1334.7331   -2017.3231   -1840.4153   -146.46099    99.972562    99.972562    129.99451    1299231.9     321.6448 
   23200   -58975.597   -1348.3673    -2001.082   -1848.2497   -195.77024    99.972562    99.972562    129.99451    1299231.9    324.73804 
   23300   -58969.089   -1346.1323   -1924.3136   -1921.4419   -192.64123    99.972562    99.972562    129.99451    1299231.9     320.6404 
   23400   -58964.661   -1394.5353   -1959.0178   -1900.1883   -324.39967    99.972562    99.972562    129.99451    1299231.9     317.4223 
   23500   -58970.603   -1407.9313    -2067.214    -1898.261   -258.31898    99.972562    99.972562    129.99451    1299231.9    320.16538 
   23600   -58973.369   -1347.3534   -1984.1058   -1850.7347   -207.21985    99.972562    99.972562    129.99451    1299231.9    321.13371 
   23700   -58971.377   -1319.0527   -1994.5594    -1841.212   -121.38681    99.972562    99.972562    129.99451    1299231.9    319.30863 
   23800    -58975.11   -1379.8707   -2152.6475   -1900.9757   -85.989028    99.972562    99.972562    129.99451    1299231.9    320.79092 
   23900   -58972.251   -1399.8008   -2073.8885   -1825.6926   -299.82116    99.972562    99.972562    129.99451    1299231.9    318.32774 
   24000   -58971.313   -1464.1198   -2122.7655   -1950.3599   -319.23407    99.972562    99.972562    129.99451    1299231.9    317.87405 
   24100   -58972.094   -1353.9034   -2041.2515   -1812.7423   -207.71635    99.972562    99.972562    129.99451    1299231.9    318.32108 
   24200   -58978.145    -1352.656     -2026.27   -1856.3788   -175.31928    99.972562    99.972562    129.99451    1299231.9    321.22207 
   24300   -58980.586   -1255.6172    -1927.612   -1785.3893   -53.850192    99.972562    99.972562    129.99451    1299231.9    322.11036 
   24400    -58973.23   -1264.1049   -1913.1502   -1758.9666   -120.19784    99.972562    99.972562    129.99451    1299231.9    317.46338 
   24500   -58977.381   -1280.2021   -1954.1202   -1776.6092   -109.87677    99.972562    99.972562    129.99451    1299231.9     319.5161 
   24600   -58972.633   -1312.4077    -2001.455    -1778.236   -157.53213    99.972562    99.972562    129.99451    1299231.9    316.73049 
   24700   -58980.622   -1305.0646   -2005.0571   -1788.0439   -122.09286    99.972562    99.972562    129.99451    1299231.9    321.34901 
   24800   -58975.165   -1180.4888   -1828.6234   -1688.6306    -24.21246    99.972562    99.972562    129.99451    1299231.9    317.91433 
   24900   -58982.632   -1233.0218   -1941.0503   -1711.4034   -46.611586    99.972562    99.972562    129.99451    1299231.9     322.1863 
   25000   -58977.851   -1251.2875   -1937.1373    -1740.417   -76.308007    99.972562    99.972562    129.99451    1299231.9     318.7229 
   25100   -58978.523   -1278.4663   -2013.1259   -1715.8376   -106.43533    99.972562    99.972562    129.99451    1299231.9    318.51559 
   25200   -58979.636   -1278.3589   -2009.6522   -1780.3679   -45.056569    99.972562    99.972562    129.99451    1299231.9     318.5848 
   25300   -58978.076   -1284.0127   -1933.8967    -1839.543   -78.598423    99.972562    99.972562    129.99451    1299231.9    317.70324 
   25400   -58980.785   -1280.7608   -1920.0612   -1825.3712   -96.849988    99.972562    99.972562    129.99451    1299231.9    318.95283 
   25500   -58978.573   -1302.8745   -1939.3105   -1855.4492   -113.86381    99.972562    99.972562    129.99451    1299231.9    317.56639 
   25600   -58980.721   -1333.4606   -2036.7712   -1887.2515   -76.359298    99.972562    99.972562    129.99451    1299231.9    318.57556 
   25700   -58977.633   -1402.8089   -2104.2364   -1857.9096   -246.28079    99.972562    99.972562    129.99451    1299231.9    316.25316 
   25800    -58975.06   -1478.5232    -2217.868   -1941.1571   -276.54444    99.972562    99.972562    129.99451    1299231.9    314.36791 
   25900   -58979.262   -1432.7269   -2168.9095   -1940.1168   -189.15431    99.972562    99.972562    129.99451    1299231.9    316.06377 
   26000   -58983.719   -1404.0068   -2070.1174   -1956.0524   -185.85064    99.972562    99.972562    129.99451    1299231.9    318.14344 
   26100   -58986.137   -1341.2181   -1963.6837   -1913.8183   -146.15221    99.972562    99.972562    129.99451    1299231.9    318.86816 
   26200   -58978.173   -1387.7722   -2003.9687   -1920.3299   -239.01804    99.972562    99.972562    129.99451    1299231.9    313.97713 
   26300   -58980.203   -1471.4972    -2150.417   -1991.2027   -272.87196    99.972562    99.972562    129.99451    1299231.9    314.86711 
   26400    -58983.63   -1379.5923   -2044.6524   -1897.5142   -196.61037    99.972562    99.972562    129.99451    1299231.9    316.64117 
   26500   -58987.372   -1304.8864     -1969.24   -1812.7222   -132.69697    99.972562    99.972562    129.99451    1299231.9    318.56409 
   26600   -58984.185    -1270.783   -1966.3992   -1724.6238   -121.32585    99.972562    99.972562    129.99451    1299231.9    316.06456 
   26700   -58984.326   -1250.1234   -1910.3268   -1789.5197   -50.523702    99.972562    99.972562    129.99451    1299231.9    315.85079 
   26800   -58980.007   -1296.0245   -1947.1526   -1820.4107   -120.51015    99.972562    99.972562    129.99451    1299231.9    312.92055 
   26900   -58983.221   -1319.3881   -1982.6706   -1886.1866    -89.30723    99.972562    99.972562    129.99451    1299231.9    314.99588 
   27000   -58983.241   -1359.2255   -2039.5699   -1842.0078   -196.09885    99.972562    99.972562    129.99451    1299231.9    314.36013 
   27100   -58983.166   -1302.6122    -1925.623   -1878.4013   -103.81218    99.972562    99.972562    129.99451    1299231.9    313.43193 
   27200   -58981.212   -1288.9563   -2003.6594   -1821.6334    -41.57631    99.972562    99.972562    129.99451    1299231.9    311.79721 
   27300   -58989.422   -1305.5124   -1971.0996   -1818.3186   -127.11902    99.972562    99.972562    129.99451    1299231.9    316.34257 
   27400   -58990.088   -1344.5517    -1999.599   -1871.7118   -162.34433    99.972562    99.972562    129.99451    1299231.9    316.37636 
   27500   -58985.468   -1397.8018   -2061.0741   -1886.9627   -245.36853    99.972562    99.972562    129.99451    1299231.9    313.35894 
   27600   -58989.253    -1474.302   -2167.5279   -1952.1325   -303.24566    99.972562    99.972562    129.99451    1299231.9    315.22162 
   27700   -58989.727   -1450.5626   -2129.2274   -1932.4551   -290.00533    99.972562    99.972562    129.99451    1299231.9    314.90185 
   27800   -58989.845   -1404.6627   -2004.9606   -1945.5524   -263.47526    99.972562    99.972562    129.99451    1299231.9    314.72259 
   27900     -58990.1    -1431.915   -2081.8881    -1980.746   -233.11097    99.972562    99.972562    129.99451    1299231.9    314.41197 
   28000   -58986.037    -1317.998    -1943.574   -1848.5818   -161.83821    99.972562    99.972562    129.99451    1299231.9     311.4893 
   28100   -58990.386   -1417.6675   -2022.3959   -2065.6717   -164.93496    99.972562    99.972562    129.99451    1299231.9     313.5761 
   28200   -58991.057   -1374.1552   -2010.8313   -1905.2652   -206.36896    99.972562    99.972562    129.99451    1299231.9    314.03847 
   28300   -58992.512   -1345.2006   -2035.5679    -1858.106   -141.92783    99.972562    99.972562    129.99451    1299231.9    314.15099 
   28400   -58989.051   -1317.9186    -1954.595   -1864.8253   -134.33541    99.972562    99.972562    129.99451    1299231.9    311.71301 
   28500   -58987.461   -1386.1212   -2039.8274   -1924.0281   -194.50807    99.972562    99.972562    129.99451    1299231.9    310.27601 
   28600   -58987.453   -1381.9083   -2105.0959     -1845.72   -194.90898    99.972562    99.972562    129.99451    1299231.9     310.0998 
   28700   -58995.443   -1355.0912   -2073.7405   -1852.8447   -138.68847    99.972562    99.972562    129.99451    1299231.9    314.01817 
   28800   -58990.453   -1370.1566   -2056.7883   -1852.8298   -200.85162    99.972562    99.972562    129.99451    1299231.9    310.60786 
   28900   -58997.721   -1326.9437   -1967.1091   -1864.6112   -149.11071    99.972562    99.972562    129.99451    1299231.9    314.72887 
   29000   -58989.414   -1225.0414   -1869.4069   -1771.9377   -33.779492    99.972562    99.972562    129.99451    1299231.9    309.91691 
   29100   -58999.263   -1245.8571   -1947.6616   -1796.7624    6.8525297    99.972562    99.972562    129.99451    1299231.9    315.20738 
   29200   -58994.058   -1308.8283   -1947.6832   -1864.1202   -114.68147    99.972562    99.972562    129.99451    1299231.9    312.24491 
   29300   -58995.995     -1346.45    -2039.652   -1864.2055   -135.49239    99.972562    99.972562    129.99451    1299231.9    312.73076 
   29400   -58994.321   -1304.9488   -1974.3639   -1884.8073   -55.675344    99.972562    99.972562    129.99451    1299231.9    311.48574 
   29500   -58996.183   -1312.4985   -1979.5735   -1802.9195   -155.00258    99.972562    99.972562    129.99451    1299231.9    312.85767 
   29600   -58992.877   -1274.1532   -1914.1339   -1793.4661   -114.85963    99.972562    99.972562    129.99451    1299231.9    310.50515 
   29700   -58993.464   -1286.5355   -1932.5706   -1773.9546   -153.08141    99.972562    99.972562    129.99451    1299231.9    310.64546 
   29800   -58993.551    -1419.765   -2097.6199   -1922.8753   -238.79981    99.972562    99.972562    129.99451    1299231.9    310.61273 
   29900   -58991.737   -1434.1534   -2078.3815   -1958.7655   -265.31318    99.972562    99.972562    129.99451    1299231.9     309.5594 
   30000   -58998.275   -1520.9842   -2274.9322    -1961.531   -326.48959    99.972562    99.972562    129.99451    1299231.9    313.27694 
   30100   -58995.158    -1493.626   -2210.5322   -1912.9513    -357.3945    99.972562    99.972562    129.99451    1299231.9    311.10294 
   30200   -58993.071   -1447.8077   -2096.1813   -1954.3198   -292.92191    99.972562    99.972562    129.99451    1299231.9     309.2928 
   30300   -58996.225   -1402.3545   -2007.7692   -1948.9125   -250.38184    99.972562    99.972562    129.99451    1299231.9    310.80268 
   30400   -58995.055   -1333.0501   -1986.6155   -1819.8318   -192.70279    99.972562    99.972562    129.99451    1299231.9    309.68902 
   30500   -58993.073   -1267.2821   -1970.3604   -1762.5196   -68.966304    99.972562    99.972562    129.99451    1299231.9    308.10696 
   30600   -58997.614   -1276.3526   -1967.2631   -1824.9331   -36.861658    99.972562    99.972562    129.99451    1299231.9    310.47516 
   30700   -58998.354   -1234.8787   -1963.1178   -1719.6867   -21.831683    99.972562    99.972562    129.99451    1299231.9     310.8725 
   30800   -58997.789   -1283.3273   -1925.4159   -1840.5311   -84.034753    99.972562    99.972562    129.99451    1299231.9    310.37579 
   30900   -58994.397   -1209.2998   -1856.2929   -1772.1972   0.59065693    99.972562    99.972562    129.99451    1299231.9    308.34081 
   31000   -58996.255    -1105.515   -1812.7942    -1571.235    67.484309    99.972562    99.972562    129.99451    1299231.9    309.34269 
   31100   -58998.689   -1147.4413    -1833.752   -1670.7337    62.161817    99.972562    99.972562    129.99451    1299231.9    310.72585 
   31200   -58995.843     -1252.28   -1894.1727   -1759.0271    -103.6403    99.972562    99.972562    129.99451    1299231.9    308.86618 
   31300   -59004.263   -1220.4995   -1911.5701   -1786.4382    36.509841    99.972562    99.972562    129.99451    1299231.9    313.47921 
   31400   -58997.473   -1318.1428   -2020.7681   -1805.9155   -127.74499    99.972562    99.972562    129.99451    1299231.9    309.34298 
   31500   -58996.158   -1354.6994   -2038.9639   -1913.0469   -112.08748    99.972562    99.972562    129.99451    1299231.9    308.21655 
   31600    -58997.22   -1398.6063    -2043.852   -1974.1327   -177.83418    99.972562    99.972562    129.99451    1299231.9    308.46198 
   31700   -58997.475   -1509.5416   -2154.6484   -2032.9849   -340.99162    99.972562    99.972562    129.99451    1299231.9    308.16085 
   31800   -59001.312   -1581.8076   -2216.7936   -2075.3419   -453.28744    99.972562    99.972562    129.99451    1299231.9    309.77616 
   31900   -59002.823   -1530.4641    -2218.648   -1972.9611   -399.78327    99.972562    99.972562    129.99451    1299231.9    309.86874 
   32000   -58998.091   -1488.9768   -2096.3025   -2002.6635   -367.96426    99.972562    99.972562    129.99451    1299231.9    306.82613 
   32100   -59004.368   -1439.1034   -2163.7914   -1922.2801   -231.23867    99.972562    99.972562    129.99451    1299231.9    309.99879 
   32200   -59002.087   -1351.8955   -1993.5217   -1897.5443   -164.62049    99.972562    99.972562    129.99451    1299231.9    308.62887 
   32300   -59001.078   -1327.4064   -2015.6197   -1832.4958   -134.10351    99.972562    99.972562    129.99451    1299231.9     307.8633 
   32400   -59000.292   -1211.3795   -1946.6643   -1687.3038  -0.17055188    99.972562    99.972562    129.99451    1299231.9    307.13411 
   32500   -59006.288   -1290.1673   -2053.1323   -1788.8832   -28.486542    99.972562    99.972562    129.99451    1299231.9    310.51518 
   32600   -59002.486   -1260.5637   -1973.5089   -1791.1425   -17.039554    99.972562    99.972562    129.99451    1299231.9    307.86879 
   32700   -59003.231   -1248.5484   -1903.9391   -1799.1381   -42.567976    99.972562    99.972562    129.99451    1299231.9    308.19425 
   32800   -59001.873   -1259.9661   -1883.3042   -1780.1163   -116.47791    99.972562    99.972562    129.99451    1299231.9    307.28439 
   32900   -59004.824   -1296.5773   -1971.3994   -1795.1029   -123.22972    99.972562    99.972562    129.99451    1299231.9    308.40723 
   33000   -59004.945   -1270.9392   -1938.8126   -1754.7908   -119.21419    99.972562    99.972562    129.99451    1299231.9    308.43867 
   33100   -59003.783   -1248.4264   -1874.5073   -1858.2682   -12.503635    99.972562    99.972562    129.99451    1299231.9      307.209 
   33200   -59007.598   -1426.7987   -2074.2859   -1962.6231   -243.48728    99.972562    99.972562    129.99451    1299231.9    309.16428 
   33300   -59006.433   -1399.1322    -2000.674   -2031.3962   -165.32643    99.972562    99.972562    129.99451    1299231.9    308.07985 
   33400    -59004.08   -1475.9783   -2122.8393   -2042.9147   -262.18082    99.972562    99.972562    129.99451    1299231.9    306.46202 
   33500   -59007.626   -1441.7495   -2042.5681   -2033.9707   -248.70959    99.972562    99.972562    129.99451    1299231.9    308.46073 
   33600   -59003.286   -1378.9927   -2099.1755   -1871.1639   -166.63862    99.972562    99.972562    129.99451    1299231.9      305.957 
   33700   -59001.733   -1419.3042    -2089.155   -1975.6312   -193.12634    99.972562    99.972562    129.99451    1299231.9    304.78631 
   33800   -59005.423   -1469.8937   -2098.8917   -2020.6996   -290.08975    99.972562    99.972562    129.99451    1299231.9    306.69095 
   33900   -59003.298   -1460.2419   -2107.3881   -2009.7579   -263.57961    99.972562    99.972562    129.99451    1299231.9    305.86182 
   34000   -59006.628   -1440.3316   -2063.1874   -1955.7378   -302.06949    99.972562    99.972562    129.99451    1299231.9    308.02348 
   34100   -59010.161   -1354.3504   -2104.4912   -1903.2774   -55.282474    99.972562    99.972562    129.99451    1299231.9    310.38527 
   34200   -59006.111   -1349.9147   -2007.0869   -1848.6533   -194.00377    99.972562    99.972562    129.99451    1299231.9    307.70086 
   34300   -59005.774   -1309.2777   -2044.5109   -1765.5721   -117.75008    99.972562    99.972562    129.99451    1299231.9    307.31014 
   34400   -59010.694   -1360.1053    -2051.242     -1872.81   -156.26379    99.972562    99.972562    129.99451    1299231.9    309.82135 
   34500   -59006.288   -1303.5655   -1997.2927   -1786.0458   -127.35809    99.972562    99.972562    129.99451    1299231.9     306.9544 
   34600   -59006.043   -1284.4444   -1991.3624   -1782.4945   -79.476246    99.972562    99.972562    129.99451    1299231.9     306.7664 
   34700    -59008.72   -1303.4931   -1974.7178   -1822.6258    -113.1356    99.972562    99.972562    129.99451    1299231.9    308.19325 
   34800   -59009.373   -1328.6952   -2055.0523   -1807.8579   -123.17526    99.972562    99.972562    129.99451    1299231.9    308.33113 
   34900   -59008.004   -1355.4803   -2036.0017   -1920.4611    -109.9781    99.972562    99.972562    129.99451    1299231.9    307.18073 
   35000    -59010.09   -1305.7909   -1960.7199   -1919.8726   -36.780251    99.972562    99.972562    129.99451    1299231.9    308.23481 
   35100   -59007.967   -1388.2338   -2082.3323    -1896.055   -186.31411    99.972562    99.972562    129.99451    1299231.9    307.14726 
   35200   -59010.516   -1414.5155    -2081.174   -1926.0998   -236.27272    99.972562    99.972562    129.99451    1299231.9    308.98654 
   35300   -59007.372   -1396.7257   -2031.8949   -1988.3665   -169.91568    99.972562    99.972562    129.99451    1299231.9    307.58036 
   35400    -59007.42   -1373.9749   -2052.6625   -1892.1816   -177.08048    99.972562    99.972562    129.99451    1299231.9    307.10746 
   35500    -59008.06   -1404.9028    -2115.676    -1935.019   -164.01333    99.972562    99.972562    129.99451    1299231.9    307.54397 
   35600   -59004.256   -1422.6772   -2082.9827   -1972.2568   -212.79208    99.972562    99.972562    129.99451    1299231.9    305.62717 
   35700   -59008.157   -1336.6002   -1897.9932   -1996.0122   -115.79506    99.972562    99.972562    129.99451    1299231.9    307.96545 
   35800   -59005.518   -1307.0128   -1934.9452    -1881.796   -104.29733    99.972562    99.972562    129.99451    1299231.9    306.37042 
   35900    -59007.65   -1399.4229   -2070.8182   -1932.7238   -194.72673    99.972562    99.972562    129.99451    1299231.9    307.04051 
   36000   -59010.388   -1386.6297   -2063.2014   -1921.7535   -174.93428    99.972562    99.972562    129.99451    1299231.9    308.32229 
   36100    -59007.56   -1292.2457   -1955.7966   -1846.4842   -74.456496    99.972562    99.972562    129.99451    1299231.9    306.47996 
   36200   -59008.833   -1324.7006   -1999.4555   -1851.1093   -123.53713    99.972562    99.972562    129.99451    1299231.9    307.09499 
   36300   -59005.902   -1269.3501   -1987.9989    -1807.076    -12.97538    99.972562    99.972562    129.99451    1299231.9    305.53404 
   36400   -59007.322   -1293.6972   -1997.1817   -1777.9285    -105.9814    99.972562    99.972562    129.99451    1299231.9    306.30299 
   36500   -59008.478   -1270.7547   -1903.5016   -1853.0043    -55.75827    99.972562    99.972562    129.99451    1299231.9    306.75467 
   36600   -59010.804   -1355.9858   -1994.5027   -1895.8114   -177.64315    99.972562    99.972562    129.99451    1299231.9    307.93352 
   36700   -59006.746   -1288.4587   -1945.7139   -1808.4916   -111.17051    99.972562    99.972562    129.99451    1299231.9    305.11549 
   36800   -59007.938   -1338.3319   -1997.0634   -1772.0984   -245.83387    99.972562    99.972562    129.99451    1299231.9    305.37131 
   36900   -59014.562    -1359.778   -2025.8413    -1863.162   -190.33062    99.972562    99.972562    129.99451    1299231.9    308.73268 
   37000   -59012.034   -1370.8019   -2020.0585   -1925.6885   -166.65872    99.972562    99.972562    129.99451    1299231.9    307.24097 
   37100   -59009.958   -1354.3011   -2006.9894   -1923.4281    -132.4858    99.972562    99.972562    129.99451    1299231.9     306.1918 
   37200   -59008.601   -1400.3757   -2015.2317   -2003.5336   -182.36194    99.972562    99.972562    129.99451    1299231.9    305.49514 
   37300   -59014.713   -1370.6055   -2055.2051   -1885.1342   -171.47728    99.972562    99.972562    129.99451    1299231.9     308.9195 
   37400   -59012.554   -1372.9266    -1998.451   -1923.8795    -196.4493    99.972562    99.972562    129.99451    1299231.9    307.07622 
   37500   -59014.934   -1326.0565   -1955.4552   -1864.4256   -158.28859    99.972562    99.972562    129.99451    1299231.9    307.77991 
   37600   -59011.597   -1364.0843   -2035.3565   -1849.0113   -207.88515    99.972562    99.972562    129.99451    1299231.9    305.54406 
   37700   -59011.401   -1312.0292   -2024.1519   -1842.8278   -69.107795    99.972562    99.972562    129.99451    1299231.9    305.17842 
   37800   -59014.335   -1350.5945   -2037.0328   -1884.1579   -130.59293    99.972562    99.972562    129.99451    1299231.9    306.58883 
   37900   -59013.923   -1309.1191    -1968.776   -1816.5223   -142.05908    99.972562    99.972562    129.99451    1299231.9    306.35492 
   38000    -59014.64   -1308.8292   -1957.9226   -1808.2652   -160.29968    99.972562    99.972562    129.99451    1299231.9    306.18144 
   38100   -59017.146   -1446.7438   -2102.1484   -1939.5515   -298.53141    99.972562    99.972562    129.99451    1299231.9    307.54723 
   38200   -59011.164   -1371.0038   -2007.9256   -1870.9194   -234.16636    99.972562    99.972562    129.99451    1299231.9    303.76947 
   38300   -59011.582   -1437.5167   -2060.6911   -1854.7934   -397.06562    99.972562    99.972562    129.99451    1299231.9     304.1251 
   38400   -59013.473   -1425.9366   -2060.4744   -1879.6641   -337.67148    99.972562    99.972562    129.99451    1299231.9    305.11015 
   38500    -59016.16     -1369.95   -2102.1518   -1784.2967    -223.4015    99.972562    99.972562    129.99451    1299231.9    306.75883 
   38600   -59016.285   -1399.4565   -2089.3734   -1909.0805   -199.91561    99.972562    99.972562    129.99451    1299231.9    306.46629 
   38700   -59011.404   -1317.9363   -2049.5255   -1863.4907   -40.792736    99.972562    99.972562    129.99451    1299231.9    303.67471 
   38800   -59017.764   -1302.9896   -2010.7389   -1874.0055   -24.224459    99.972562    99.972562    129.99451    1299231.9    307.30086 
   38900    -59011.84    -1360.143    -2031.489   -1913.0557    -135.8842    99.972562    99.972562    129.99451    1299231.9    303.47214 
   39000   -59016.128   -1355.4691   -2035.5051   -1851.8959   -179.00621    99.972562    99.972562    129.99451    1299231.9    305.92845 
   39100   -59016.628   -1293.2591   -1950.6483   -1866.4932   -62.635747    99.972562    99.972562    129.99451    1299231.9     306.0279 
   39200   -59011.826   -1311.5999   -1952.1243   -1847.0602   -135.61521    99.972562    99.972562    129.99451    1299231.9    303.05948 
   39300   -59013.906   -1322.8134   -2045.9297   -1844.3717    -78.13878    99.972562    99.972562    129.99451    1299231.9    304.42375 
   39400     -59016.4   -1314.7831   -2016.4468   -1866.8958   -61.006693    99.972562    99.972562    129.99451    1299231.9    305.77289 
   39500   -59011.985   -1281.7784   -1979.7063   -1799.3549   -66.273864    99.972562    99.972562    129.99451    1299231.9    303.10212 
   39600   -59013.686    -1205.862   -1792.3196   -1861.9806    36.714262    99.972562    99.972562    129.99451    1299231.9    303.63584 
   39700   -59013.116   -1265.9335    -1944.944   -1867.3486    14.491977    99.972562    99.972562    129.99451    1299231.9    303.27717 
   39800   -59010.498   -1298.9949   -1926.2022   -1854.3139   -116.46876    99.972562    99.972562    129.99451    1299231.9    301.70881 
   39900   -59018.363   -1244.3643   -1930.2144   -1736.1589   -66.719707    99.972562    99.972562    129.99451    1299231.9    305.79494 
   40000   -59008.553   -1294.4545   -1994.9946   -1756.5846   -131.78442    99.972562    99.972562    129.99451    1299231.9    300.37213 
   40100   -59012.639   -1365.6699   -2067.1372   -1855.0189   -174.85353    99.972562    99.972562    129.99451    1299231.9    302.54085 
   40200   -59014.992   -1337.6339   -2043.3224   -1784.6985   -184.88086    99.972562    99.972562    129.99451    1299231.9    303.58531 
   40300    -59013.76   -1427.9055   -2124.1543   -1931.2365    -228.3257    99.972562    99.972562    129.99451    1299231.9    302.83366 
   40400   -59015.664   -1349.4969   -2071.4797   -1857.1605   -119.85051    99.972562    99.972562    129.99451    1299231.9    303.50623 
   40500   -59017.742   -1381.2766   -2073.9442    -1908.236   -161.64945    99.972562    99.972562    129.99451    1299231.9     304.8701 
   40600   -59018.544   -1391.9752   -2003.8621   -1975.2028   -196.86085    99.972562    99.972562    129.99451    1299231.9    305.29095 
   40700   -59019.838   -1471.9649   -2049.3196   -2048.8224   -317.75257    99.972562    99.972562    129.99451    1299231.9    305.73363 
   40800   -59016.162   -1490.0247   -2110.5081   -1997.3349   -362.23117    99.972562    99.972562    129.99451    1299231.9    303.58625 
   40900   -59011.716   -1460.8139   -2096.5195   -1959.8018   -326.12029    99.972562    99.972562    129.99451    1299231.9    300.59413 
   41000   -59011.635   -1449.7409   -2093.2828   -1932.4361   -323.50398    99.972562    99.972562    129.99451    1299231.9    300.35489 
   41100   -59017.607   -1448.4099   -2084.7273   -1971.1515   -289.35097    99.972562    99.972562    129.99451    1299231.9    303.84177 
   41200   -59016.686   -1392.2215   -2044.2899   -1972.0658   -160.30871    99.972562    99.972562    129.99451    1299231.9    303.27879 
   41300   -59018.764   -1362.5471    -2066.788   -1868.1063   -152.74689    99.972562    99.972562    129.99451    1299231.9    304.07274 
   41400   -59018.108   -1327.0417   -2026.5554   -1910.3601   -44.209728    99.972562    99.972562    129.99451    1299231.9    303.32182 
   41500   -59017.918   -1285.2414   -1989.1877   -1818.1171   -48.419419    99.972562    99.972562    129.99451    1299231.9    303.11318 
   41600   -59018.408    -1295.073   -2027.3583   -1846.4714   -11.389251    99.972562    99.972562    129.99451    1299231.9    302.63466 
   41700   -59022.227   -1342.6318   -1991.6088   -1889.5483   -146.73826    99.972562    99.972562    129.99451    1299231.9    304.60235 
   41800   -59013.627   -1323.8886   -1966.9436   -1877.1733   -127.54881    99.972562    99.972562    129.99451    1299231.9    298.90705 
   41900   -59016.189   -1346.3035   -2059.6782   -1831.2305   -148.00193    99.972562    99.972562    129.99451    1299231.9    300.10031 
   42000   -59017.833   -1340.0192   -1978.9685   -1912.3979   -128.69103    99.972562    99.972562    129.99451    1299231.9    300.66537 
   42100   -59018.311   -1344.7719   -1988.3207   -1868.3558   -177.63923    99.972562    99.972562    129.99451    1299231.9    300.53378 
   42200   -59019.727   -1330.8191   -1977.5082   -1877.3924   -137.55663    99.972562    99.972562    129.99451    1299231.9     301.1663 
   42300   -59019.111   -1373.3945   -2010.0056   -1908.4026   -201.77527    99.972562    99.972562    129.99451    1299231.9    300.75637 
   42400   -59018.834    -1387.192   -2084.6492   -1881.7246   -195.20214    99.972562    99.972562    129.99451    1299231.9    300.37366 
   42500   -59021.058   -1376.3413    -1982.164   -1895.5964   -251.26347    99.972562    99.972562    129.99451    1299231.9     301.7885 
   42600   -59017.154   -1368.7766   -2021.2895   -1941.1149   -143.92531    99.972562    99.972562    129.99451    1299231.9    299.22226 
   42700   -59017.203   -1332.8158   -1967.9456   -1890.6415   -139.86025    99.972562    99.972562    129.99451    1299231.9     299.1464 
   42800   -59020.276   -1366.9935   -1993.5691   -1879.1401   -228.27117    99.972562    99.972562    129.99451    1299231.9    300.94298 
   42900   -59023.751   -1345.3337   -1983.2198   -1866.1019   -186.67935    99.972562    99.972562    129.99451    1299231.9    302.73575 
   43000   -59022.303    -1347.038   -1985.3828   -1893.6514   -162.07986    99.972562    99.972562    129.99451    1299231.9    301.69409 
   43100   -59022.974   -1283.6584   -1906.9505   -1823.4044   -120.62025    99.972562    99.972562    129.99451    1299231.9    301.91101 
   43200    -59021.29   -1320.2089   -1971.0337   -1820.1942   -169.39867    99.972562    99.972562    129.99451    1299231.9    300.88385 
   43300   -59018.169   -1268.1207   -1946.4699   -1849.6857   -8.2066363    99.972562    99.972562    129.99451    1299231.9    299.08176 
   43400   -59024.219   -1268.5692   -1886.7279    -1915.282   -3.6976766    99.972562    99.972562    129.99451    1299231.9    302.17816 
   43500   -59021.933   -1295.2116   -1942.2644   -1896.0246   -47.345919    99.972562    99.972562    129.99451    1299231.9    300.13234 
   43600   -59020.922   -1341.9461   -2078.7662    -1840.828   -106.24401    99.972562    99.972562    129.99451    1299231.9    299.45245 
   43700    -59022.19    -1403.245   -2138.7443   -1912.9293   -158.06145    99.972562    99.972562    129.99451    1299231.9    299.77433 
   43800   -59023.085   -1336.6327   -1971.6143   -1971.7604   -66.523446    99.972562    99.972562    129.99451    1299231.9    299.69611 
   43900   -59023.604   -1376.8794   -2077.2616   -1950.0666      -103.31    99.972562    99.972562    129.99451    1299231.9    299.77084 
   44000   -59021.764   -1347.2883   -1993.1013   -1855.0849   -193.67882    99.972562    99.972562    129.99451    1299231.9    298.45028 
   44100   -59025.431    -1402.488   -2018.7276   -2020.0669   -168.66967    99.972562    99.972562    129.99451    1299231.9    300.75828 
   44200   -59020.421   -1417.4979   -2066.1692   -1881.4307   -304.89383    99.972562    99.972562    129.99451    1299231.9     297.9848 
   44300   -59026.301   -1401.4523   -2103.6832   -1811.4308   -289.24279    99.972562    99.972562    129.99451    1299231.9    301.32116 
   44400   -59020.975   -1291.3427   -2004.2243   -1800.6142   -69.189718    99.972562    99.972562    129.99451    1299231.9    298.37675 
   44500   -59023.504   -1373.7047   -2008.3553   -1897.6279   -215.13104    99.972562    99.972562    129.99451    1299231.9    299.75955 
   44600   -59018.217   -1350.4931   -1969.8043   -1904.0873   -177.58772    99.972562    99.972562    129.99451    1299231.9    296.52961 
   44700   -59025.263   -1432.4385   -2100.8965   -1957.0906    -239.3282    99.972562    99.972562    129.99451    1299231.9    300.48723 
   44800   -59028.529   -1395.1944   -2052.4153   -1933.5785   -199.58945    99.972562    99.972562    129.99451    1299231.9     302.2211 
   44900    -59022.42   -1310.7456   -1960.8944   -1863.2354   -108.10686    99.972562    99.972562    129.99451    1299231.9    298.40789 
   45000   -59023.259   -1299.4147   -1915.2755   -1874.4175   -108.55112    99.972562    99.972562    129.99451    1299231.9    298.69561 
   45100   -59025.861   -1356.8291   -2009.3871   -1899.2307   -161.86954    99.972562    99.972562    129.99451    1299231.9    300.18184 
   45200   -59024.755   -1333.2773   -2014.1477   -1904.1214   -81.562717    99.972562    99.972562    129.99451    1299231.9    299.71984 
   45300   -59023.028   -1383.6998   -2026.7545   -1927.6937   -196.65131    99.972562    99.972562    129.99451    1299231.9    298.76566 
   45400    -59024.82   -1411.8784   -2126.0622   -1881.1645   -228.40854    99.972562    99.972562    129.99451    1299231.9    300.08164 
   45500   -59020.655   -1393.4133    -2077.949   -1906.9052   -195.38566    99.972562    99.972562    129.99451    1299231.9    297.76841 
   45600   -59023.604   -1297.7068    -1892.265   -1810.0341    -190.8213    99.972562    99.972562    129.99451    1299231.9    299.49093 
   45700   -59029.697   -1292.9986   -1947.2197   -1842.3798    -89.39615    99.972562    99.972562    129.99451    1299231.9    302.94369 
   45800   -59028.292   -1356.0543   -2021.7994   -1865.4187   -180.94471    99.972562    99.972562    129.99451    1299231.9    302.03573 
   45900   -59022.283   -1313.2388   -1978.7199   -1864.2235   -96.773119    99.972562    99.972562    129.99451    1299231.9     298.6797 
   46000    -59023.86   -1374.3907   -1971.4364   -1980.7845   -170.95138    99.972562    99.972562    129.99451    1299231.9    299.78438 
   46100   -59026.137   -1366.1075    -2053.326   -1846.5306   -198.46585    99.972562    99.972562    129.99451    1299231.9    301.26423 
   46200   -59024.265   -1350.9239   -1944.0746   -1889.6517    -219.0454    99.972562    99.972562    129.99451    1299231.9    300.23946 
   46300   -59024.992   -1318.5308   -1926.8742   -1929.1242   -99.593924    99.972562    99.972562    129.99451    1299231.9    300.54125 
   46400   -59024.423   -1313.8902   -1931.7225   -1815.7877   -194.16057    99.972562    99.972562    129.99451    1299231.9    299.79342 
   46500   -59025.355   -1388.3471   -2058.6136   -1873.8302   -232.59751    99.972562    99.972562    129.99451    1299231.9    300.28203 
   46600   -59018.625    -1367.324   -2005.3521   -1896.4389   -200.18114    99.972562    99.972562    129.99451    1299231.9     296.3386 
   46700   -59022.052   -1383.4572   -1986.6452   -1927.3879   -236.33861    99.972562    99.972562    129.99451    1299231.9    298.14666 
   46800   -59022.795   -1281.0411   -1955.0715   -1836.6206   -51.431224    99.972562    99.972562    129.99451    1299231.9    298.66396 
   46900   -59025.831   -1319.5325   -1978.0107   -1851.0938   -129.49293    99.972562    99.972562    129.99451    1299231.9    300.04005 
   47000   -59020.907   -1351.9956   -1974.1053   -1945.2783   -136.60313    99.972562    99.972562    129.99451    1299231.9    297.59136 
   47100   -59024.073   -1372.6717   -2005.4675    -1940.569   -171.97874    99.972562    99.972562    129.99451    1299231.9    299.46477 
   47200    -59024.47   -1462.4164   -2077.5152   -2044.0589   -265.67511    99.972562    99.972562    129.99451    1299231.9    299.79489 
   47300   -59024.418   -1430.9598   -2064.2215    -1959.518   -269.14001    99.972562    99.972562    129.99451    1299231.9    299.94503 
   47400   -59030.753   -1313.5536   -1991.9356   -1898.8567   -49.868488    99.972562    99.972562    129.99451    1299231.9    303.16377 
   47500   -59022.972   -1294.2717   -1913.9904   -1864.3861   -104.43869    99.972562    99.972562    129.99451    1299231.9    298.67211 
   47600   -59026.899   -1246.2298   -1897.5323   -1757.9523   -83.205014    99.972562    99.972562    129.99451    1299231.9    300.81164 
   47700   -59023.511   -1305.6295   -1911.3182   -1923.1425   -82.427649    99.972562    99.972562    129.99451    1299231.9    298.12272 
   47800   -59022.869   -1290.7765     -1942.43   -1857.2699   -72.629653    99.972562    99.972562    129.99451    1299231.9    297.05287 
   47900   -59028.633   -1333.7976   -1965.4111   -1896.9027   -139.07889    99.972562    99.972562    129.99451    1299231.9    300.21319 
   48000   -59026.531   -1285.3392   -1929.1706   -1818.9669   -107.88005    99.972562    99.972562    129.99451    1299231.9    298.78583 
   48100   -59023.879   -1298.5966   -1909.9312   -1845.5826   -140.27618    99.972562    99.972562    129.99451    1299231.9    296.57967 
   48200   -59025.192   -1382.9086   -1986.1026   -1962.9437   -199.67946    99.972562    99.972562    129.99451    1299231.9    297.10467 
   48300   -59023.444   -1394.7985    -1957.599   -2016.4198   -210.37683    99.972562    99.972562    129.99451    1299231.9     296.0623 
   48400   -59024.418   -1385.9097   -1989.0391   -1932.2088   -236.48129    99.972562    99.972562    129.99451    1299231.9    296.48962 
   48500    -59019.66   -1271.7314   -1892.8039   -1819.2373    -103.1529    99.972562    99.972562    129.99451    1299231.9    294.10715 
   48600   -59026.348   -1303.8301   -1994.0864   -1837.3909   -80.013122    99.972562    99.972562    129.99451    1299231.9    297.93999 
   48700   -59033.499   -1339.2756   -2021.4631   -1847.0539   -149.30979    99.972562    99.972562    129.99451    1299231.9    301.92264 
   48800    -59027.69   -1296.8801   -1934.2206   -1857.7478   -98.671965    99.972562    99.972562    129.99451    1299231.9    298.73669 
   48900   -59020.545   -1301.5914   -1934.0869   -1890.1923   -80.495019    99.972562    99.972562    129.99451    1299231.9    294.93438 
   49000   -59026.033   -1388.1459   -2087.6877    -1943.015   -133.73503    99.972562    99.972562    129.99451    1299231.9    298.15749 
   49100   -59024.571    -1335.389    -2025.897   -1893.3854    -86.88444    99.972562    99.972562    129.99451    1299231.9    297.60808 
   49200   -59027.953   -1291.1836   -2100.1285   -1801.9153     28.49289    99.972562    99.972562    129.99451    1299231.9    299.33983 
   49300   -59028.763   -1325.4151   -1988.5348   -1869.3708   -118.33967    99.972562    99.972562    129.99451    1299231.9     299.2947 
   49400   -59027.241   -1370.0333   -2004.6099   -1928.5684   -176.92138    99.972562    99.972562    129.99451    1299231.9    298.11907 
   49500   -59029.219   -1376.7458   -1994.5343   -2021.0498   -114.65336    99.972562    99.972562    129.99451    1299231.9    299.11367 
   49600    -59026.26   -1432.8662   -2095.9545   -2008.1633   -194.48077    99.972562    99.972562    129.99451    1299231.9    296.95288 
   49700   -59023.627   -1430.8561   -2049.5354   -2019.7768   -223.25597    99.972562    99.972562    129.99451    1299231.9     295.2481 
   49800   -59026.676   -1474.1061   -2103.7053   -2002.8031   -315.80999    99.972562    99.972562    129.99451    1299231.9    296.28953 
   49900   -59027.027   -1451.2135   -2045.0223   -2005.2516   -303.36649    99.972562    99.972562    129.99451    1299231.9    296.18289 
   50000   -59030.253   -1449.9428   -2065.3849   -1996.1878   -288.25584    99.972562    99.972562    129.99451    1299231.9    297.83941 
Loop time of 595.778 on 45 procs for 50000 steps with 13384 atoms

Performance: 7.251 ns/day, 3.310 hours/ns, 83.924 timesteps/s
69.4% CPU use with 45 MPI tasks x no OpenMP threads

MPI task timing breakdown:
Section |  min time  |  avg time  |  max time  |%varavg| %total
---------------------------------------------------------------
Pair    | 0.01606    | 152.46     | 429.51     |1354.4 | 25.59
Neigh   | 0.0011241  | 0.35146    | 1.5759     | 100.7 |  0.06
Comm    | 0.42945    | 107.05     | 379.11     |1282.7 | 17.97
Output  | 1.4147     | 1.4351     | 1.5029     |   1.2 |  0.24
Modify  | 6.0923     | 327.85     | 587.6      |1489.9 | 55.03
Other   |            | 6.642      |            |       |  1.11

Nlocal:    297.422 ave 1140 max 0 min
Histogram: 27 0 5 2 1 0 1 0 0 9
Nghost:    802.578 ave 2320 max 0 min
Histogram: 27 0 0 0 0 0 0 5 8 5
Neighs:    20140.8 ave 88525 max 0 min
Histogram: 32 2 1 0 1 0 0 0 0 9

Total # of neighbors = 906336
Ave neighs/atom = 67.7179
Neighbor list builds = 319
Dangerous builds = 0
run finished for a value 1
0 atoms in group myG
Reading data file ...
  orthogonal box = (-49.9863 -49.9863 -19.9973) to (49.9863 49.9863 109.997)
  3 by 3 by 5 MPI processor grid
  reading atoms ...
  884 atoms
  reading velocities ...
  884 velocities
  read_data CPU = 0.0217171 secs
13384 atoms in group subG
56
Displacing atoms ...
Resetting atom IDs ...
Setting atom values ...
  1261 settings made for vz
Setting up Verlet run ...
  Unit style    : metal
  Current step  : 50000
  Time step     : 0.001
Per MPI rank memory allocation (min/avg/max) = 0.6656 | 3.068 | 4.867 Mbytes
Step PotEng Press Pxx Pyy Pzz Lx Ly Lz Volume Temp 
   50000   -62823.318   -1802.1934   -2460.1747     -2401.46   -544.94557    99.972562    99.972562    129.99451    1299231.9    299.67337 
   50100   -62846.748   -1489.0315   -2163.2041   -2089.8643   -214.02606    99.972562    99.972562    129.99451    1299231.9    312.00126 
   50200   -62845.423   -1344.3806   -1996.0467   -1973.7641   -63.330988    99.972562    99.972562    129.99451    1299231.9    311.09129 
   50300   -62847.533   -1274.7312   -1981.6259   -1858.4247    15.857099    99.972562    99.972562    129.99451    1299231.9    311.88661 
   50400    -62843.19   -1202.4309   -1912.2364   -1745.8571    50.800785    99.972562    99.972562    129.99451    1299231.9    309.51284 
   50500   -62849.632    -1267.884   -1975.3044   -1925.2002    96.852574    99.972562    99.972562    129.99451    1299231.9    313.27751 
   50600   -62849.334   -1444.5038    -2095.222   -2070.8473    -167.4421    99.972562    99.972562    129.99451    1299231.9    313.14407 
   50700     -62846.5   -1513.9099    -2185.406   -2097.9954   -258.32838    99.972562    99.972562    129.99451    1299231.9    311.66838 
   50800   -62847.864    -1343.543   -2115.0375   -1942.1352     26.54364    99.972562    99.972562    129.99451    1299231.9    312.44155 
   50900   -62846.594   -1242.7897    -1917.934   -1833.9786    23.543392    99.972562    99.972562    129.99451    1299231.9    312.39275 
   51000   -62844.733   -1086.3693   -1787.8895   -1687.2437    216.02527    99.972562    99.972562    129.99451    1299231.9    311.49429 
   51100   -62842.895   -1098.5545   -1824.7795   -1637.3407    166.45662    99.972562    99.972562    129.99451    1299231.9    310.83628 
   51200   -62845.936   -1165.0219   -1872.3575   -1773.2705    150.56237    99.972562    99.972562    129.99451    1299231.9    312.38243 
   51300    -62846.24   -1328.2015   -2058.5416   -1945.3126    19.249832    99.972562    99.972562    129.99451    1299231.9    312.25403 
   51400    -62849.55   -1474.2222    -2172.612    -2043.546   -206.50867    99.972562    99.972562    129.99451    1299231.9    313.57258 
   51500   -62846.133   -1451.1858   -2138.7175   -2061.4351   -153.40491    99.972562    99.972562    129.99451    1299231.9    311.83874 
   51600   -62845.918   -1426.6994   -2111.1756   -1978.3984   -190.52425    99.972562    99.972562    129.99451    1299231.9    311.49395 
   51700   -62845.351   -1310.1078   -1974.1908   -1893.0617   -63.070916    99.972562    99.972562    129.99451    1299231.9    311.42933 
   51800   -62846.832   -1310.4479   -1945.2062   -1894.4916   -91.645799    99.972562    99.972562    129.99451    1299231.9     311.7563 
   51900   -62844.405   -1400.7497   -2013.1714   -1973.6589   -215.41892    99.972562    99.972562    129.99451    1299231.9    310.27447 
   52000   -62845.026   -1457.3675   -2082.0638   -2065.1371   -224.90162    99.972562    99.972562    129.99451    1299231.9    310.45763 
   52100   -62848.849   -1450.0499   -2154.9114    -2049.809   -145.42941    99.972562    99.972562    129.99451    1299231.9    312.23303 
   52200   -62849.077    -1413.641   -2039.3935   -2077.8581   -123.67151    99.972562    99.972562    129.99451    1299231.9    312.06356 
   52300   -62849.947   -1301.5094   -1920.5236   -2000.3976    16.392864    99.972562    99.972562    129.99451    1299231.9    312.31593 
   52400   -62850.897   -1247.3922   -1839.6294    -1929.265    26.717731    99.972562    99.972562    129.99451    1299231.9    312.52415 
   52500   -62849.254   -1228.4597   -1937.1368   -1817.9674     69.72515    99.972562    99.972562    129.99451    1299231.9    311.34192 
   52600   -62848.628   -1229.5938   -1968.6767   -1844.4859     124.3812    99.972562    99.972562    129.99451    1299231.9    311.07668 
   52700   -62849.688   -1164.1826   -1995.0307   -1723.1736    225.65661    99.972562    99.972562    129.99451    1299231.9    311.68939 
   52800   -62853.155   -1259.3659   -2057.2177    -1847.035    126.15493    99.972562    99.972562    129.99451    1299231.9     313.2236 
   52900   -62853.612   -1293.1876   -2027.4206   -1935.7098     83.56765    99.972562    99.972562    129.99451    1299231.9    313.17891 
   53000   -62854.068   -1242.5055   -1964.3753    -1862.165    99.023801    99.972562    99.972562    129.99451    1299231.9    313.55711 
   53100   -62849.689   -1261.1295   -1955.7328   -1832.0259    4.3702006    99.972562    99.972562    129.99451    1299231.9    311.01494 
   53200   -62853.364   -1305.0267   -1987.3556   -1891.8223   -35.902341    99.972562    99.972562    129.99451    1299231.9     312.5914 
   53300   -62853.754   -1372.9411   -2111.3384   -1908.4179   -99.066966    99.972562    99.972562    129.99451    1299231.9    312.28433 
   53400   -62856.807   -1440.1695   -2093.0517   -2061.3464   -166.11049    99.972562    99.972562    129.99451    1299231.9    314.11491 
   53500   -62851.108   -1467.1859     -2240.11   -1999.2095   -162.23834    99.972562    99.972562    129.99451    1299231.9    310.73597 
   53600   -62851.194   -1451.9585   -2097.7361   -2075.7045   -182.43482    99.972562    99.972562    129.99451    1299231.9    311.03898 
   53700   -62851.348   -1381.3045   -2106.2082   -1920.4282   -117.27714    99.972562    99.972562    129.99451    1299231.9    311.36431 
   53800   -62850.366   -1292.1003   -1961.3834   -1838.4594   -76.458024    99.972562    99.972562    129.99451    1299231.9    310.60266 
   53900   -62855.789   -1200.4213   -1873.2096   -1769.9397    41.885273    99.972562    99.972562    129.99451    1299231.9    313.57853 
   54000   -62854.706   -1229.1772   -1915.9873   -1834.4213    62.876903    99.972562    99.972562    129.99451    1299231.9    313.47884 
   54100   -62854.624   -1303.8181   -2061.8704   -1908.0543    58.470529    99.972562    99.972562    129.99451    1299231.9    313.80918 
   54200   -62854.413   -1316.3675   -2003.5454   -1932.9234   -12.633535    99.972562    99.972562    129.99451    1299231.9    313.88509 
[...]
  487000   -94997.372   -1115.9655   -1509.2671   -1626.0535   -212.57605    99.972562    99.972562    129.99451    1299231.9    314.08634 
  487100   -94999.995   -1032.8122   -1505.6908   -1557.3556   -35.390189    99.972562    99.972562    129.99451    1299231.9    314.73507 
  487200   -94999.932   -1083.5654   -1509.0197   -1681.5966   -60.079966    99.972562    99.972562    129.99451    1299231.9    314.67306 
  487300   -95001.425   -991.55266   -1506.6004   -1546.9958    78.938275    99.972562    99.972562    129.99451    1299231.9    315.05576 
  487400   -94997.301   -986.43583   -1495.8322   -1491.9165    28.441223    99.972562    99.972562    129.99451    1299231.9    313.56674 
  487500   -94994.743    -1099.059   -1525.6092   -1670.5556   -101.01223    99.972562    99.972562    129.99451    1299231.9     312.7956 
  487600   -94996.063   -1169.8793   -1591.5207   -1794.7929   -123.32427    99.972562    99.972562    129.99451    1299231.9    313.19263 
  487700   -94995.299   -1162.8762   -1614.1544   -1692.3883   -182.08604    99.972562    99.972562    129.99451    1299231.9     312.7647 
  487800   -95001.119   -1140.0766   -1625.7764   -1685.1652   -109.28828    99.972562    99.972562    129.99451    1299231.9    314.80352 
  487900   -95001.826    -1084.644   -1543.2082   -1675.0316    -35.69218    99.972562    99.972562    129.99451    1299231.9    314.77204 
  488000   -94995.674    -1002.626   -1446.9684   -1533.6631   -27.246573    99.972562    99.972562    129.99451    1299231.9    312.52709 
  488100   -95001.933   -1012.2596   -1528.8686   -1592.9649    85.054638    99.972562    99.972562    129.99451    1299231.9    314.98722 
  488200   -95005.175    -1042.968   -1476.2814   -1700.1952    47.572572    99.972562    99.972562    129.99451    1299231.9    316.24293 
  488300   -95002.595   -1010.0163    -1479.633    -1532.075   -18.340975    99.972562    99.972562    129.99451    1299231.9    315.24979 
  488400    -94998.85   -1142.1687   -1595.7617   -1738.9001   -91.844247    99.972562    99.972562    129.99451    1299231.9    313.91839 
  488500    -94996.72   -1119.9049   -1579.4729   -1715.1873   -65.054576    99.972562    99.972562    129.99451    1299231.9    313.28774 
  488600   -95002.801   -1147.3428   -1701.3427    -1641.855   -98.830582    99.972562    99.972562    129.99451    1299231.9    315.52309 
  488700   -94999.964   -1119.7396   -1625.7685   -1602.7282   -130.72212    99.972562    99.972562    129.99451    1299231.9    314.39819 
  488800   -94993.388    -1126.418   -1617.0142   -1651.4499   -110.78986    99.972562    99.972562    129.99451    1299231.9     311.7372 
  488900   -94994.612   -1252.0305   -1768.6102   -1757.9052   -229.57599    99.972562    99.972562    129.99451    1299231.9    311.98244 
  489000    -95004.68   -1260.4657   -1820.2755   -1759.9692   -201.15248    99.972562    99.972562    129.99451    1299231.9    315.61678 
  489100   -94993.836   -1283.6556   -1820.7101   -1778.2508    -252.0059    99.972562    99.972562    129.99451    1299231.9    311.78781 
  489200   -94999.645   -1214.1697    -1717.348    -1782.773    -142.3881    99.972562    99.972562    129.99451    1299231.9    313.85882 
  489300    -95004.83   -1327.0357   -1842.8117   -1860.4934   -277.80196    99.972562    99.972562    129.99451    1299231.9    315.70913 
  489400   -95000.316    -1229.338   -1639.2352    -1872.627   -176.15164    99.972562    99.972562    129.99451    1299231.9    313.60996 
  489500   -95006.277   -1314.5339   -1712.6887   -1897.4835    -333.4295    99.972562    99.972562    129.99451    1299231.9    315.52323 
  489600    -95008.52   -1329.8755   -1768.8167   -1923.0961   -297.71379    99.972562    99.972562    129.99451    1299231.9    316.24322 
  489700   -95006.308   -1270.0356   -1702.2438   -1857.3046   -250.55844    99.972562    99.972562    129.99451    1299231.9    315.43536 
  489800   -95005.175   -1231.9884   -1670.8558   -1708.5762   -316.53333    99.972562    99.972562    129.99451    1299231.9    315.00841 
  489900   -95004.823   -1185.3083   -1713.1227   -1750.7602    -92.04214    99.972562    99.972562    129.99451    1299231.9    314.54111 
  490000   -95006.308      -1206.9   -1674.6322   -1777.9418   -168.12591    99.972562    99.972562    129.99451    1299231.9    314.79571 
  490100   -95007.637   -1182.8075   -1654.8001   -1687.9381   -205.68433    99.972562    99.972562    129.99451    1299231.9    314.95846 
  490200   -95004.207   -1250.2644   -1752.1966     -1714.17   -284.42662    99.972562    99.972562    129.99451    1299231.9    313.61244 
  490300    -95008.16   -1294.7008   -1723.2438   -1833.8338   -327.02488    99.972562    99.972562    129.99451    1299231.9     314.8885 
  490400   -95005.786   -1265.5108   -1793.6053   -1755.5263   -247.40082    99.972562    99.972562    129.99451    1299231.9     313.9008 
  490500   -95003.894   -1142.1643    -1653.854   -1635.2216   -137.41711    99.972562    99.972562    129.99451    1299231.9    313.24088 
  490600   -95007.861   -1106.9624   -1642.5429   -1646.2238   -32.120536    99.972562    99.972562    129.99451    1299231.9     314.5885 
  490700   -95002.319   -1055.5387   -1615.8451   -1617.6984    66.927548    99.972562    99.972562    129.99451    1299231.9    312.60563 
  490800   -95003.687     -1113.57    -1657.253   -1682.3439   -1.1131845    99.972562    99.972562    129.99451    1299231.9    312.83622 
  490900   -95008.329   -1168.3898   -1690.1309   -1620.7081   -194.33027    99.972562    99.972562    129.99451    1299231.9    313.94562 
  491000   -94999.896   -1120.6325    -1713.581   -1528.9737   -119.34266    99.972562    99.972562    129.99451    1299231.9    310.77189 
  491100   -95010.989   -1057.7911    -1552.924   -1485.9199   -134.52951    99.972562    99.972562    129.99451    1299231.9    314.30231 
  491200   -95003.318   -996.75069   -1433.1395    -1515.976   -41.136578    99.972562    99.972562    129.99451    1299231.9    311.22498 
  491300    -95007.14    -1052.043   -1623.8212   -1486.5481   -45.759781    99.972562    99.972562    129.99451    1299231.9    312.58637 
  491400   -95005.898   -1061.5181   -1570.2977   -1482.7814   -131.47508    99.972562    99.972562    129.99451    1299231.9    311.85612 
  491500   -95017.811   -1145.9185   -1482.2281    -1727.641    -227.8864    99.972562    99.972562    129.99451    1299231.9    315.90649 
  491600   -95001.632   -1138.8724   -1624.8416   -1715.6668   -76.108665    99.972562    99.972562    129.99451    1299231.9    309.89593 
  491700   -95010.607   -1139.0431   -1755.8852   -1606.6244   -54.619778    99.972562    99.972562    129.99451    1299231.9    312.84659 
  491800   -95010.157   -1143.6952   -1683.8359   -1593.2557   -153.99385    99.972562    99.972562    129.99451    1299231.9    312.28303 
  491900   -95011.624   -1091.1399   -1739.4789   -1570.2175    36.276613    99.972562    99.972562    129.99451    1299231.9    312.53543 
  492000   -95011.619   -1167.6317   -1779.4719   -1688.6428   -34.780455    99.972562    99.972562    129.99451    1299231.9    312.34904 
  492100   -95005.936   -1149.9657   -1651.8804   -1731.3033   -66.713415    99.972562    99.972562    129.99451    1299231.9    310.10587 
  492200   -95014.214   -1205.1535   -1788.1702   -1651.5719   -175.71838    99.972562    99.972562    129.99451    1299231.9    312.97782 
  492300   -95007.974   -1131.7778   -1585.1257   -1676.7439   -133.46361    99.972562    99.972562    129.99451    1299231.9    310.32948 
  492400   -95014.287   -1238.5587   -1715.3448   -1797.9856   -202.34553    99.972562    99.972562    129.99451    1299231.9    312.51324 
  492500   -95009.815    -1184.521   -1695.0964   -1716.8023   -141.66434    99.972562    99.972562    129.99451    1299231.9    310.96466 
  492600   -95015.055   -1281.1651   -1771.2967   -1819.6461   -252.55243    99.972562    99.972562    129.99451    1299231.9     312.7844 
  492700   -95017.101   -1125.7102   -1684.5178   -1602.4126   -90.200273    99.972562    99.972562    129.99451    1299231.9    313.46954 
  492800   -95011.426   -1163.5494   -1728.4049   -1642.5822   -119.66127    99.972562    99.972562    129.99451    1299231.9     311.1779 
  492900   -95016.599   -1131.7752   -1734.7991    -1648.745   -11.781588    99.972562    99.972562    129.99451    1299231.9    312.98472 
  493000   -95008.225   -1097.6788   -1620.5035   -1565.7371   -106.79561    99.972562    99.972562    129.99451    1299231.9    310.08947 
  493100   -95014.415   -1097.8054   -1537.0764   -1658.1446   -98.195168    99.972562    99.972562    129.99451    1299231.9    312.24906 
  493200   -95006.808    -1118.033   -1596.9238   -1656.2686   -100.90656    99.972562    99.972562    129.99451    1299231.9     309.1292 
  493300   -95014.235   -1175.7151   -1634.5839   -1775.9962   -116.56524    99.972562    99.972562    129.99451    1299231.9     311.7973 
  493400   -95016.547   -1252.8576   -1667.9786    -1844.359   -246.23509    99.972562    99.972562    129.99451    1299231.9    312.39777 
  493500   -95014.825   -1268.0166   -1757.3773   -1866.0853   -180.58706    99.972562    99.972562    129.99451    1299231.9    311.84402 
  493600   -95007.664   -1282.8032   -1804.1654   -1847.6913   -196.55289    99.972562    99.972562    129.99451    1299231.9    309.06849 
  493700   -95016.668   -1274.7378   -1781.3615   -1879.8251   -163.02678    99.972562    99.972562    129.99451    1299231.9    311.92495 
  493800   -95014.439   -1299.8557   -1734.0986   -1843.5216   -321.94697    99.972562    99.972562    129.99451    1299231.9    310.95753 
  493900   -95015.529    -1258.903   -1777.4154   -1714.3666   -284.92701    99.972562    99.972562    129.99451    1299231.9    311.30314 
  494000   -95013.781   -1165.9698   -1661.4114   -1700.6975   -135.80037    99.972562    99.972562    129.99451    1299231.9    310.30929 
  494100   -95012.789   -1123.2709   -1542.7996    -1668.674   -158.33894    99.972562    99.972562    129.99451    1299231.9     309.5729 
  494200   -95021.634   -1223.3654   -1683.2239   -1774.2139   -212.65849    99.972562    99.972562    129.99451    1299231.9    312.41592 
  494300   -95011.701   -1232.8839   -1680.9975   -1808.4853   -209.16907    99.972562    99.972562    129.99451    1299231.9    308.99495 
  494400   -95017.025   -1275.5562   -1707.0898   -1835.8629   -283.71592    99.972562    99.972562    129.99451    1299231.9    310.79227 
  494500   -95012.563   -1245.5005    -1665.093   -1847.9856   -223.42297    99.972562    99.972562    129.99451    1299231.9    309.09028 
  494600   -95011.606   -1217.4424   -1731.9985   -1819.2466   -101.08215    99.972562    99.972562    129.99451    1299231.9    308.70341 
  494700   -95015.829   -1076.7036   -1565.2039   -1639.1507     -25.7563    99.972562    99.972562    129.99451    1299231.9    310.47016 
  494800   -95017.456   -1037.0504   -1504.5802   -1540.9337   -65.637197    99.972562    99.972562    129.99451    1299231.9    310.92793 
  494900   -95019.642   -1009.9732   -1485.7191   -1531.9674   -12.233243    99.972562    99.972562    129.99451    1299231.9    311.32203 
  495000   -95016.966   -986.42907   -1514.1661   -1509.6897      64.5686    99.972562    99.972562    129.99451    1299231.9     310.0018 
  495100   -95016.011   -1019.8439   -1531.6127   -1557.1096     29.19067    99.972562    99.972562    129.99451    1299231.9    309.54972 
  495200   -95013.562   -1042.9653   -1580.2532   -1578.6418    29.999021    99.972562    99.972562    129.99451    1299231.9    308.33897 
  495300   -95021.624   -1097.2329    -1549.304   -1656.3879     -86.0067    99.972562    99.972562    129.99451    1299231.9    311.41404 
  495400   -95017.222   -1206.8359   -1655.1746   -1697.5645    -267.7687    99.972562    99.972562    129.99451    1299231.9    309.99562 
  495500   -95011.376   -1177.7508   -1649.5438   -1690.4681   -193.24053    99.972562    99.972562    129.99451    1299231.9    307.87484 
  495600   -95017.581   -1098.3506    -1465.436   -1777.2205   -52.395229    99.972562    99.972562    129.99451    1299231.9    309.97613 
  495700   -95014.064   -1170.3801   -1678.5624   -1703.9965   -128.58129    99.972562    99.972562    129.99451    1299231.9    308.40387 
  495800   -95020.892   -1159.5182   -1603.9062   -1771.3898   -103.25867    99.972562    99.972562    129.99451    1299231.9    310.83842 
  495900   -95014.129   -1176.2161   -1702.9309   -1668.3551    -157.3621    99.972562    99.972562    129.99451    1299231.9    308.01358 
  496000   -95013.494   -1157.2236   -1646.1066   -1603.4028   -222.16152    99.972562    99.972562    129.99451    1299231.9    307.71034 
  496100   -95015.822   -1191.6175   -1776.4933   -1632.6585   -165.70078    99.972562    99.972562    129.99451    1299231.9    308.62205 
  496200   -95017.538   -1186.4382   -1670.9046   -1742.2884   -146.12147    99.972562    99.972562    129.99451    1299231.9    308.86049 
  496300    -95017.21   -1175.1296   -1634.3061    -1692.988   -198.09456    99.972562    99.972562    129.99451    1299231.9    308.56622 
  496400   -95010.629   -1240.7489   -1682.0572   -1762.5889   -277.60061    99.972562    99.972562    129.99451    1299231.9    305.79728 
  496500   -95019.413   -1226.9355   -1771.2607   -1735.3384   -174.20749    99.972562    99.972562    129.99451    1299231.9    308.74736 
  496600   -95021.546   -1200.3382   -1734.7482   -1706.4768   -159.78957    99.972562    99.972562    129.99451    1299231.9    309.21587 
  496700   -95022.334   -1222.0532   -1745.1955   -1766.1688   -154.79537    99.972562    99.972562    129.99451    1299231.9    309.04583 
  496800   -95024.643    -1196.536   -1710.3526   -1663.3085   -215.94679    99.972562    99.972562    129.99451    1299231.9    309.51628 
  496900   -95022.274   -1183.5361   -1657.3445    -1675.106   -218.15798    99.972562    99.972562    129.99451    1299231.9      308.538 
  497000   -95021.464   -1219.1899    -1739.163   -1709.9024   -208.50428    99.972562    99.972562    129.99451    1299231.9    308.12348 
  497100   -95025.513   -1179.6869   -1714.3852   -1681.8669    -142.8085    99.972562    99.972562    129.99451    1299231.9    309.70441 
  497200   -95030.757   -1189.8639   -1707.6772   -1681.0428   -180.87181    99.972562    99.972562    129.99451    1299231.9    311.53949 
  497300   -95027.187   -1124.4918   -1647.2845   -1631.2314   -94.959509    99.972562    99.972562    129.99451    1299231.9    309.88567 
  497400   -95018.448   -1106.3456   -1663.5273   -1609.9214   -45.588044    99.972562    99.972562    129.99451    1299231.9    306.59573 
  497500   -95022.031   -1098.6845   -1643.9295   -1614.4807   -37.643403    99.972562    99.972562    129.99451    1299231.9    308.02196 
  497600   -95024.547   -1173.1451   -1691.4019   -1753.8433   -74.189951    99.972562    99.972562    129.99451    1299231.9    308.88653 
  497700   -95021.721   -1220.5701   -1691.0947   -1724.6852    -245.9303    99.972562    99.972562    129.99451    1299231.9    307.60247 
  497800   -95026.073   -1194.5482    -1717.079   -1694.0542    -172.5114    99.972562    99.972562    129.99451    1299231.9    309.20601 
  497900   -95022.666   -1133.2013   -1542.3318   -1764.1032    -93.16877    99.972562    99.972562    129.99451    1299231.9    307.81901 
  498000   -95022.355   -1065.8708   -1607.4677    -1591.278    1.1335065    99.972562    99.972562    129.99451    1299231.9    307.70204 
  498100   -95021.425   -1068.1408   -1542.4793   -1603.8836   -58.059545    99.972562    99.972562    129.99451    1299231.9    306.98618 
  498200   -95027.997   -1090.4303   -1641.8041   -1544.3241   -85.162613    99.972562    99.972562    129.99451    1299231.9    309.21645 
  498300   -95026.428   -1164.2764   -1670.5938   -1672.6784   -149.55696    99.972562    99.972562    129.99451    1299231.9    308.44353 
  498400   -95025.671   -1154.0989   -1633.6163   -1699.2954   -129.38503    99.972562    99.972562    129.99451    1299231.9    308.15034 
  498500   -95025.031   -1180.0771   -1625.3364   -1809.1336   -105.76143    99.972562    99.972562    129.99451    1299231.9    308.07624 
  498600    -95025.53   -1258.4529   -1844.8556   -1748.2995   -182.20354    99.972562    99.972562    129.99451    1299231.9    308.17805 
  498700   -95027.898   -1217.4518   -1718.8733   -1611.3695   -322.11248    99.972562    99.972562    129.99451    1299231.9     308.9026 
  498800   -95028.105   -1233.8726   -1680.7824    -1707.704   -313.13145    99.972562    99.972562    129.99451    1299231.9    308.67625 
  498900   -95023.789   -1238.2894   -1744.1627   -1772.6513   -198.05424    99.972562    99.972562    129.99451    1299231.9    307.07226 
  499000   -95028.016   -1181.6531   -1717.7974     -1719.75   -107.41198    99.972562    99.972562    129.99451    1299231.9    308.66684 
  499100   -95023.333   -1161.4371   -1719.2785   -1706.1027   -58.930016    99.972562    99.972562    129.99451    1299231.9    306.90772 
  499200   -95026.447   -1093.8486   -1629.7051   -1630.4259   -21.414854    99.972562    99.972562    129.99451    1299231.9    307.71933 
  499300   -95028.809   -1069.5275   -1541.5487   -1673.3426    6.3087447    99.972562    99.972562    129.99451    1299231.9    308.59003 
  499400   -95033.314   -1119.2967   -1574.7881   -1654.5587   -128.54318    99.972562    99.972562    129.99451    1299231.9    309.94496 
  499500   -95029.912   -1114.0217   -1508.4179   -1636.7971   -196.85033    99.972562    99.972562    129.99451    1299231.9    308.59108 
  499600   -95027.228   -1081.3078   -1583.7922   -1533.7686   -126.36263    99.972562    99.972562    129.99451    1299231.9    307.84871 
  499700   -95025.258   -1023.5365   -1550.4049   -1542.5707    22.366007    99.972562    99.972562    129.99451    1299231.9    306.97851 
  499800   -95025.512   -1035.6733   -1518.8327   -1628.0204    39.833319    99.972562    99.972562    129.99451    1299231.9    306.94766 
  499900   -95027.739   -1143.0028   -1697.3677   -1655.3227   -76.318081    99.972562    99.972562    129.99451    1299231.9    307.80085 
  500000   -95025.339   -1151.2789   -1639.6954   -1683.6076   -130.53389    99.972562    99.972562    129.99451    1299231.9    306.56314 
Loop time of 911.776 on 45 procs for 50000 steps with 21340 atoms

Performance: 4.738 ns/day, 5.065 hours/ns, 54.838 timesteps/s
68.5% CPU use with 45 MPI tasks x no OpenMP threads

MPI task timing breakdown:
Section |  min time  |  avg time  |  max time  |%varavg| %total
---------------------------------------------------------------
Pair    | 0.025969   | 290.51     | 578.23     |1316.5 | 31.86
Neigh   | 0.0012255  | 0.63212    | 1.9997     |  98.3 |  0.07
Comm    | 0.58987    | 237.35     | 520.36     |1242.6 | 26.03
Output  | 1.8528     | 1.866      | 1.9433     |   1.0 |  0.20
Modify  | 8.4892     | 374.55     | 902.19     |2063.6 | 41.08
Other   |            | 6.87       |            |       |  0.75

Nlocal:    474.222 ave 1538 max 0 min
Histogram: 24 3 0 1 1 0 1 11 1 3
Nghost:    1260.62 ave 3364 max 0 min
Histogram: 19 3 5 0 0 0 0 7 6 5
Neighs:    33437.1 ave 105314 max 0 min
Histogram: 26 1 1 1 0 1 1 1 10 3

Total # of neighbors = 1504669
Ave neighs/atom = 70.5093
Neighbor list builds = 331
Dangerous builds = 0
run finished for a value 10
Setting up Verlet run ...
  Unit style    : metal
  Current step  : 500000
  Time step     : 0.001
Per MPI rank memory allocation (min/avg/max) = 2.251 | 5.69 | 8.376 Mbytes
Step PotEng Press Pxx Pyy Pzz Lx Ly Lz Volume Temp 
  500000   -95025.339   -1151.2789   -1639.6954   -1683.6076   -130.53389    99.972562    99.972562    129.99451    1299231.9    306.56314 
Loop time of 0.000109662 on 45 procs for 0 steps with 21340 atoms

Total wall time: 2:02:37
