LAMMPS (5 Jun 2019)
##################################################################
##IN.LATTICE	                                                ##
##Script to deposits prequenched clusters at random locations	##
##on substrate. Compute RDFs and voronoi after impaction	##
##################################################################
##Dependencies	: ../step1/*, ../step2/*                        ##
##Influences	: lammpstrj.*, post/*, log.*, *.restart         ##
##################################################################
## ver. : 2019-07-24, Syamal Praneeth Chilakalapudi, INT, KIT	##
##Author Email    :syamalpraneeth@gmail.com			##
##################################################################

#--------------------------------------------------------------------INITIALISE
units           metal
boundary        p p p
atom_style      atomic
atom_modify map array

read_data	data.Substrate
  orthogonal box = (-49.9863 -49.9863 -19.9973) to (49.9863 49.9863 109.997)
  3 by 3 by 5 MPI processor grid
  reading atoms ...
  12500 atoms
  reading velocities ...
  12500 velocities
  read_data CPU = 0.238817 secs
mass		1 63.546
mass		2 91.224
pair_style      eam/alloy
pair_coeff      * * ZrCu.lammps.eam Zr Cu

variable        myT equal 300
variable	top equal bound(all,ymax)
variable	inter equal ${top}+2
variable	inter equal 49.9850757681647+2

region          bottom block INF INF INF INF INF -8 units box
region		interface block INF INF INF INF ${top} ${inter} units box
region		interface block INF INF INF INF 49.9850757681647 ${inter} units box
region		interface block INF INF INF INF 49.9850757681647 51.9850757681647 units box
region		film block INF INF INF INF ${top} INF units box
region		film block INF INF INF INF 49.9850757681647 INF units box

#-----------------------------------------------------------------------THERMO
thermo          100
thermo_style    custom step pe press pxx pyy pzz lx ly lz vol temp

variable	BoxL  equal  lx
variable	dispX  equal  random(0,${BoxL},475414)
variable	dispX  equal  random(0,99.9725615122585,475414)
variable	dispY  equal  random(0,${BoxL},475414)
variable	dispY  equal  random(0,99.9725615122585,475414)

#----------------------------------------------------------GROUPS AND COMPUTES
group		g1 type 1
4473 atoms in group g1
group		g2 type 2
8027 atoms in group g2
group           bottomLayer region bottom
1261 atoms in group bottomLayer
group		film region film
0 atoms in group film
group		film_g1 union film g1
4473 atoms in group film_g1
group		film_g2 union film g2
8027 atoms in group film_g2
compute		prdf11 film_g1 rdf 100
compute		prdf22 film_g2 rdf 100
compute		rdf film rdf 100 #cutoff 3.5
compute		bulk_rdf bottomLayer rdf 100 #cutoff 3.5

#---------------------------------------------------------------------DEPOSIT LOOP
shell           mkdir  dump
WARNING: Shell command 'mkdir' failed with error 'File exists' (../input.cpp:1293)
dump		relax all custom 500 dump/dump.atom id type x y z

variable a loop 10
label l1

group 	       myG  id <= 0
0 atoms in group myG
read_data      myNanoP.txt add append group myG
  orthogonal box = (-49.9863 -49.9863 -19.9973) to (49.9863 49.9863 109.997)
  3 by 3 by 5 MPI processor grid
  reading atoms ...
  884 atoms
  reading velocities ...
  884 velocities
  read_data CPU = 0.0186741 secs
group          subG subtract all myG
12500 atoms in group subG

variable       dxx   equal  "v_dispX-0.5*v_BoxL"
variable       dyy   equal  "v_dispY-0.5*v_BoxL"
variable       dzz   equal  "v_a*3+50"
print "${dzz}"
53

displace_atoms myG move ${dxx} ${dyy} ${dzz} units box	#make it uniform
displace_atoms myG move -46.2086513071489 ${dyy} ${dzz} units box	
displace_atoms myG move -46.2086513071489 10.6927909340182 ${dzz} units box	
displace_atoms myG move -46.2086513071489 10.6927909340182 53 units box	
#displace_atoms myG move 0 0  50 units box		#make it uniform
reset_ids
Resetting atom IDs ...
Neighbor list info ...
  update every 1 steps, delay 10 steps, check yes
  max neighbors/atom: 2000, page size: 100000
  master list distance cutoff = 8.5
  ghost atom cutoff = 8.5
  binsize = 4.25, bins = 24 24 31
  5 neighbor lists, perpetual/occasional/extra = 1 4 0
  (1) pair eam/alloy, perpetual
      attributes: half, newton on
      pair build: half/bin/atomonly/newton
      stencil: half/bin/3d/newton
      bin: standard
  (2) compute rdf, occasional, copy from (1)
      attributes: half, newton on
      pair build: copy
      stencil: none
      bin: none
  (3) compute rdf, occasional, copy from (1)
      attributes: half, newton on
      pair build: copy
      stencil: none
      bin: none
  (4) compute rdf, occasional, copy from (1)
      attributes: half, newton on
      pair build: copy
      stencil: none
      bin: none
  (5) compute rdf, occasional, copy from (1)
      attributes: half, newton on
      pair build: copy
      stencil: none
      bin: none

variable	E equal 500*(1.6e-19)				#units: eV
variable	mass equal (mass(myG))*(1.6605e-27)
variable        cvel equal (-1)*(sqrt(2*${E}/${mass}))/100	#metal units: vel = 1 Angstr/ps = 100 m/s
variable        cvel equal (-1)*(sqrt(2*8e-17/${mass}))/100	
variable        cvel equal (-1)*(sqrt(2*8e-17/1.0826230851e-22))/100	
velocity        myG create 300 74657362 mom yes rot yes
velocity        myG set 0 0 ${cvel} units box
velocity        myG set 0 0 -12.1568581600967 units box

velocity        subG create 300 74657362 mom yes rot yes
set             group bottomLayer vz  0
  1261 settings made for vz
fix             freeze bottomLayer setforce NULL NULL 0.0

#compute myT 	subG temp
#thermo_modify 	temp myT

fix            1 all nve
fix            2 bottomLayer temp/berendsen 200.0 200.0 0.1
run            50000
Per MPI rank memory allocation (min/avg/max) = 0.6606 | 2.912 | 4.86 Mbytes
Step PotEng Press Pxx Pyy Pzz Lx Ly Lz Volume Temp 
       0    -58680.58   -2583.7411   -3603.9229   -3326.1166   -821.18375    99.972562    99.972562    129.99451    1299231.9    559.15697 
     100   -58751.884   -1648.1947   -2679.4808   -2637.8379    372.73461    99.972562    99.972562    129.99451    1299231.9    598.57654 
     200   -58754.828   -1616.4222   -2651.2955   -2539.1122    341.14102    99.972562    99.972562    129.99451    1299231.9    597.10506 
     300   -58756.988   -1595.5211   -2642.7827   -2567.0776    423.29717    99.972562    99.972562    129.99451    1299231.9    596.19652 
     400   -58766.265   -1378.0271   -2659.9213   -2209.7926    735.63254    99.972562    99.972562    129.99451    1299231.9    600.47248 
     500   -58770.693   -837.60649   -2182.2617   -1771.5594    1441.0017    99.972562    99.972562    129.99451    1299231.9    602.21216 
     600   -58776.065   -743.53798   -1999.5919   -1755.2495    1524.2274    99.972562    99.972562    129.99451    1299231.9    603.98793 
     700   -58777.679    -588.1471   -1921.3266   -1586.6409    1743.5263    99.972562    99.972562    129.99451    1299231.9    604.50764 
     800   -58773.754    -300.8201   -1614.7095   -1346.3929    2058.6421    99.972562    99.972562    129.99451    1299231.9    601.19095 
     900   -58782.833   -141.16225   -1495.7647   -1126.0105    2198.2884    99.972562    99.972562    129.99451    1299231.9    605.51216 
    1000   -58775.149   -139.02243   -1431.3228   -1089.1639    2103.4195    99.972562    99.972562    129.99451    1299231.9    600.04175 
    1100   -58782.486   -138.06914     -1471.86   -1031.8045    2089.4571    99.972562    99.972562    129.99451    1299231.9    603.20878 
    1200   -58784.813   -395.28966   -1598.1893   -1377.0453    1789.3657    99.972562    99.972562    129.99451    1299231.9    603.82854 
    1300   -58781.022   -849.28203   -1989.7593   -1815.2256    1257.1389    99.972562    99.972562    129.99451    1299231.9    600.57587 
    1400   -58780.223   -1307.6997   -2459.4373   -2151.6901    688.02816    99.972562    99.972562    129.99451    1299231.9    599.27786 
    1500   -58781.942   -1568.2145   -2706.3393   -2348.7788    350.47455    99.972562    99.972562    129.99451    1299231.9    599.21127 
    1600   -58783.453   -1645.7614   -2747.1242   -2448.6965    258.53644    99.972562    99.972562    129.99451    1299231.9    599.29134 
    1700   -58787.015   -1633.5324   -2776.7328   -2408.4913    284.62698    99.972562    99.972562    129.99451    1299231.9    600.46058 
    1800   -58783.313   -1598.2811   -2803.5617   -2419.4406    428.15916    99.972562    99.972562    129.99451    1299231.9    597.75864 
    1900    -58781.64   -1631.9856   -2688.5641   -2506.9806    299.58784    99.972562    99.972562    129.99451    1299231.9    595.92934 
    2000   -58782.185   -1681.1211   -2793.5766   -2573.1038    323.31713    99.972562    99.972562    129.99451    1299231.9    595.80646 
    2100   -58787.857   -1526.8718   -2676.6816   -2460.7797    556.84587    99.972562    99.972562    129.99451    1299231.9    598.62573 
    2200   -58795.127   -1379.5517   -2568.4209   -2290.9979    720.76352    99.972562    99.972562    129.99451    1299231.9    602.27814 
    2300   -58804.592   -1085.3906   -2290.8472   -2014.6527    1049.3281    99.972562    99.972562    129.99451    1299231.9    607.06487 
    2400   -58814.165   -619.29116   -1811.3066   -1537.0617    1490.4949    99.972562    99.972562    129.99451    1299231.9    612.68388 
    2500   -58807.996   -166.29572   -1439.9917   -1075.9551    2017.0596    99.972562    99.972562    129.99451    1299231.9    608.39735 
    2600   -58802.199    216.18976   -1032.4085   -738.53753    2419.5153    99.972562    99.972562    129.99451    1299231.9    604.21556 
    2700   -58789.912    455.73061   -878.06092   -503.24952    2748.5023    99.972562    99.972562    129.99451    1299231.9    596.17961 
    2800   -58769.959    677.22557   -632.55272   -265.27238    2929.5018    99.972562    99.972562    129.99451    1299231.9    583.83635 
    2900   -58746.698    800.63302   -384.42606   -158.01781    2944.3429    99.972562    99.972562    129.99451    1299231.9    569.57634 
    3000   -58728.524    790.15613   -408.70318   -28.005825    2807.1774    99.972562    99.972562    129.99451    1299231.9    557.58791 
    3100    -58708.08    867.03155   -285.55036    184.01658    2702.6284    99.972562    99.972562    129.99451    1299231.9    543.95687 
    3200   -58693.762    941.05383   -93.454476    242.81056    2673.8054    99.972562    99.972562    129.99451    1299231.9    533.37823 
    3300   -58679.725      940.406   -20.960503    305.91547     2536.263    99.972562    99.972562    129.99451    1299231.9    523.13653 
    3400    -58668.18    743.42615   -89.211274    142.64964    2176.8401    99.972562    99.972562    129.99451    1299231.9    513.69053 
    3500   -58659.033    468.89013   -305.88526    111.35457    1601.2011    99.972562    99.972562    129.99451    1299231.9    505.43193 
    3600   -58645.655    215.36133   -320.50064   -160.88986    1127.4745    99.972562    99.972562    129.99451    1299231.9    495.17848 
    3700   -58643.223    -32.22609   -445.93831   -375.44512    724.70515    99.972562    99.972562    129.99451    1299231.9    491.38419 
    3800   -58626.544   -224.97105   -719.04944    -322.9976     367.1339    99.972562    99.972562    129.99451    1299231.9    479.99495 
    3900   -58618.847   -407.08663   -800.37913   -502.09222    81.211472    99.972562    99.972562    129.99451    1299231.9    473.44687 
    4000    -58610.76   -500.71447   -821.38403   -589.41918   -91.340205    99.972562    99.972562    129.99451    1299231.9    466.59586 
    4100   -58594.138   -669.46859   -950.93242   -791.27633   -266.19701    99.972562    99.972562    129.99451    1299231.9    455.57931 
    4200    -58593.59   -663.59407   -942.02734    -815.3398   -233.41507    99.972562    99.972562    129.99451    1299231.9    454.09106 
    4300   -58596.318   -660.54903    -901.7115   -799.08928    -280.8463    99.972562    99.972562    129.99451    1299231.9    454.41881 
    4400   -58581.562   -626.88902   -926.95579   -758.30241   -195.40887    99.972562    99.972562    129.99451    1299231.9    444.46598 
    4500   -58592.739   -558.88714   -841.11893    -638.1425   -197.39999    99.972562    99.972562    129.99451    1299231.9    448.91818 
    4600   -58599.334   -457.56921   -700.85128   -537.75399   -134.10237    99.972562    99.972562    129.99451    1299231.9    450.68907 
    4700   -58596.782   -304.84798   -495.70377   -455.30634    36.466162    99.972562    99.972562    129.99451    1299231.9    447.29701 
    4800   -58607.552   -177.63058   -397.64059   -390.48211    255.23095    99.972562    99.972562    129.99451    1299231.9    450.78595 
    4900   -58616.467   -99.734708   -331.44146   -297.31679    329.55413    99.972562    99.972562    129.99451    1299231.9    453.38578 
    5000   -58624.987   -53.516918   -252.60541   -406.14736    498.20202    99.972562    99.972562    129.99451    1299231.9    455.96245 
    5100   -58620.914    56.022246   -176.85761   -264.83254    609.75689    99.972562    99.972562    129.99451    1299231.9    451.20008 
    5200   -58623.253    145.79032   -78.539805   -82.732222    598.64297    99.972562    99.972562    129.99451    1299231.9    449.96712 
    5300   -58636.934    112.01772   -61.998754   -195.62702    593.67894    99.972562    99.972562    129.99451    1299231.9    455.60175 
    5400   -58639.633   -12.339644   -284.38183   -322.60041    569.96331    99.972562    99.972562    129.99451    1299231.9    454.49771 
    5500   -58657.734   -115.14595   -368.92149   -331.48779    354.97142    99.972562    99.972562    129.99451    1299231.9    462.82756 
    5600   -58650.932    -219.0449   -490.48342    -432.8883    266.23704    99.972562    99.972562    129.99451    1299231.9    456.16556 
    5700   -58642.682   -331.35355    -658.3787   -551.07236    215.39041    99.972562    99.972562    129.99451    1299231.9    449.14685 
    5800   -58655.412    -539.9021    -699.7784   -883.82961   -36.098292    99.972562    99.972562    129.99451    1299231.9    454.14132 
    5900   -58662.823   -714.20118   -940.20719   -991.49119   -210.90516    99.972562    99.972562    129.99451    1299231.9     456.0915 
    6000   -58658.667   -891.18691    -1148.495   -1161.7571   -363.30856    99.972562    99.972562    129.99451    1299231.9    451.05232 
    6100   -58667.797   -1057.5339   -1254.3429    -1294.723   -623.53592    99.972562    99.972562    129.99451    1299231.9    453.27354 
    6200   -58660.896   -1200.5517    -1455.698   -1323.3201   -822.63688    99.972562    99.972562    129.99451    1299231.9    446.40521 
    6300   -58681.239   -1259.2461   -1455.7774   -1489.0801   -832.88089    99.972562    99.972562    129.99451    1299231.9    455.37606 
    6400   -58682.923    -1312.054   -1597.4008   -1585.2873   -753.47396    99.972562    99.972562    129.99451    1299231.9    453.65046 
    6500   -58684.173   -1241.2744   -1497.2751   -1553.5978   -672.95024    99.972562    99.972562    129.99451    1299231.9    452.12802 
    6600   -58686.189   -1135.8429   -1485.4249   -1415.8303   -506.27341    99.972562    99.972562    129.99451    1299231.9    450.68565 
    6700   -58686.005   -1006.4844    -1396.346   -1279.7129   -343.39429    99.972562    99.972562    129.99451    1299231.9    447.55137 
    6800   -58694.377   -941.13229   -1268.3045    -1291.636   -263.45636    99.972562    99.972562    129.99451    1299231.9    450.30881 
    6900   -58698.051   -820.61354   -1202.1707   -1168.0026   -91.667269    99.972562    99.972562    129.99451    1299231.9     450.0092 
    7000   -58691.347   -601.59127   -1061.1188   -852.85992    109.20489    99.972562    99.972562    129.99451    1299231.9    443.82095 
    7100   -58696.875   -470.70553   -900.75133   -795.55251    284.18724    99.972562    99.972562    129.99451    1299231.9    444.16036 
    7200   -58703.507   -539.19163   -1121.2423   -802.48033    306.14778    99.972562    99.972562    129.99451    1299231.9    445.99673 
    7300   -58696.407   -479.24306   -999.90369   -823.34832    385.52283    99.972562    99.972562    129.99451    1299231.9    439.79623 
    7400   -58705.294   -615.47937   -1154.0119   -918.11808    225.69184    99.972562    99.972562    129.99451    1299231.9    442.82153 
    7500   -58713.347   -715.96292    -1214.074   -956.71017    22.895369    99.972562    99.972562    129.99451    1299231.9    444.94887 
    7600   -58708.675   -808.31545   -1272.3561   -1079.9697     -72.6205    99.972562    99.972562    129.99451    1299231.9    439.98447 
    7700    -58713.83   -925.88355   -1483.4836   -1211.6876   -82.479438    99.972562    99.972562    129.99451    1299231.9    440.72559 
    7800   -58723.946   -1175.2841   -1684.8032   -1394.8482   -446.20105    99.972562    99.972562    129.99451    1299231.9    444.72681 
    7900   -58725.891   -1193.9866   -1688.4794   -1497.9585   -395.52176    99.972562    99.972562    129.99451    1299231.9    443.52798 
    8000   -58716.062   -1229.9731   -1660.1766   -1542.3274   -487.41547    99.972562    99.972562    129.99451    1299231.9    435.29707 
    8100   -58718.505   -1308.1709   -1757.0014   -1580.0158   -587.49551    99.972562    99.972562    129.99451    1299231.9    434.30631 
    8200   -58727.789   -1335.0414   -1803.2403   -1627.7377   -574.14607    99.972562    99.972562    129.99451    1299231.9     438.0365 
    8300    -58725.12    -1309.062   -1793.2138   -1453.3542    -680.6179    99.972562    99.972562    129.99451    1299231.9    433.88338 
    8400    -58726.56   -1246.9894   -1739.8042    -1502.129     -499.035    99.972562    99.972562    129.99451    1299231.9    432.50535 
    8500   -58737.689   -1153.3324   -1665.2291   -1459.1668   -335.60115    99.972562    99.972562    129.99451    1299231.9    436.65368 
    8600   -58733.921   -1078.5911   -1722.7942   -1240.8644   -272.11456    99.972562    99.972562    129.99451    1299231.9    431.96717 
    8700   -58739.876   -983.06149    -1471.551   -1274.1712   -203.46222    99.972562    99.972562    129.99451    1299231.9    433.51557 
    8800   -58736.237   -842.82894   -1365.7954   -1105.2624   -57.429023    99.972562    99.972562    129.99451    1299231.9     429.1345 
    8900   -58751.234   -720.44572    -1223.982   -1105.8515    168.49634    99.972562    99.972562    129.99451    1299231.9    436.20883 
    9000   -58744.261   -639.30177   -1168.9233   -1047.1034    298.12136    99.972562    99.972562    129.99451    1299231.9    430.40314 
    9100   -58751.371   -537.81699   -1091.3282   -885.92484    363.80209    99.972562    99.972562    129.99451    1299231.9    433.06697 
    9200   -58752.615   -684.49245   -1198.1867   -1027.7918    172.50109    99.972562    99.972562    129.99451    1299231.9    431.53697 
    9300   -58753.949   -640.91617    -1177.706   -884.35985    139.31736    99.972562    99.972562    129.99451    1299231.9      430.096 
    9400   -58752.031   -769.52542   -1225.2935   -1110.1811    26.898411    99.972562    99.972562    129.99451    1299231.9    426.44001 
    9500   -58761.316   -764.27859   -1278.9867   -1047.9398    34.090745    99.972562    99.972562    129.99451    1299231.9    429.78185 
    9600   -58763.636   -792.36127   -1277.3235   -1041.1265   -58.633844    99.972562    99.972562    129.99451    1299231.9    429.40605 
    9700   -58764.722   -959.92463   -1462.4439   -1230.3401   -186.98993    99.972562    99.972562    129.99451    1299231.9    428.18855 
    9800   -58760.528   -986.61283   -1404.9991    -1273.381   -281.45841    99.972562    99.972562    129.99451    1299231.9    424.17788 
    9900   -58768.848   -1088.3863   -1569.6377   -1370.7399   -324.78124    99.972562    99.972562    129.99451    1299231.9    427.09744 
   10000   -58768.572   -1025.0197   -1494.4822   -1270.5554   -310.02161    99.972562    99.972562    129.99451    1299231.9    424.90385 
   10100   -58775.048   -1073.6131   -1520.8418   -1334.3778   -365.61958    99.972562    99.972562    129.99451    1299231.9    426.59857 
   10200    -58776.74   -1049.4222   -1649.1745   -1311.7215   -187.37065    99.972562    99.972562    129.99451    1299231.9    425.43271 
   10300   -58780.046   -1027.1767    -1664.894   -1188.2681   -228.36809    99.972562    99.972562    129.99451    1299231.9    425.01077 
   10400   -58779.912   -1020.1373   -1613.9703   -1212.5973   -233.84438    99.972562    99.972562    129.99451    1299231.9    422.81056 
   10500   -58779.023     -941.674   -1491.3956   -1181.5228   -152.10355    99.972562    99.972562    129.99451    1299231.9    420.78273 
   10600   -58787.802   -873.72675   -1454.5535   -1116.1696   -50.457143    99.972562    99.972562    129.99451    1299231.9    424.16285 
   10700   -58783.289    -867.8266   -1381.7793   -1222.1854    0.4849639    99.972562    99.972562    129.99451    1299231.9    419.78836 
   10800   -58781.573   -855.63994    -1452.134   -1054.4049   -60.380873    99.972562    99.972562    129.99451    1299231.9    416.76788 
   10900   -58791.629   -854.61027   -1400.9138   -1041.0269   -121.89016    99.972562    99.972562    129.99451    1299231.9    420.34929 
   11000     -58798.6   -828.05169   -1418.9016   -1097.4616    32.208075    99.972562    99.972562    129.99451    1299231.9    422.21232 
   11100   -58795.269   -835.17456   -1388.1685   -1151.0786    33.723431    99.972562    99.972562    129.99451    1299231.9    418.02887 
   11200    -58802.84   -812.09644   -1336.6343   -1079.9303    -19.72469    99.972562    99.972562    129.99451    1299231.9    419.93495 
   11300    -58802.51   -817.48683   -1343.0418   -1091.2434   -18.175298    99.972562    99.972562    129.99451    1299231.9    417.79079 
   11400   -58803.315   -902.83484   -1341.1001   -1200.6879    -166.7165    99.972562    99.972562    129.99451    1299231.9    416.36505 
   11500   -58802.741   -893.34442   -1337.5881   -1215.6277   -126.81751    99.972562    99.972562    129.99451    1299231.9     414.2175 
   11600   -58798.763   -879.44708   -1366.3157   -1188.8382   -83.187287    99.972562    99.972562    129.99451    1299231.9    410.32817 
   11700   -58811.052    -935.1954   -1389.5073   -1322.4548   -93.624052    99.972562    99.972562    129.99451    1299231.9    415.12676 
   11800   -58808.059   -963.32741   -1439.5967   -1274.5819   -175.80363    99.972562    99.972562    129.99451    1299231.9     411.4068 
   11900   -58804.497   -1071.4215   -1566.7438    -1280.597   -366.92356    99.972562    99.972562    129.99451    1299231.9    407.70387 
   12000   -58814.796   -1077.2902   -1547.3058   -1367.3879   -317.17706    99.972562    99.972562    129.99451    1299231.9    411.77296 
   12100    -58813.86    -1029.159   -1552.7639   -1249.2466   -285.46648    99.972562    99.972562    129.99451    1299231.9    409.16329 
   12200   -58815.658    -1034.375   -1605.5612   -1291.3143    -206.2495    99.972562    99.972562    129.99451    1299231.9    408.14132 
   12300   -58817.342   -1072.4735   -1641.2115   -1349.4628   -226.74627    99.972562    99.972562    129.99451    1299231.9    406.78603 
   12400   -58825.845   -999.49345   -1521.9235   -1306.0321   -170.52469    99.972562    99.972562    129.99451    1299231.9    410.05728 
   12500   -58822.151   -937.23877   -1498.5116   -1235.7422   -77.462562    99.972562    99.972562    129.99451    1299231.9    405.70742 
   12600    -58821.06   -1038.0833    -1617.625   -1360.3185   -136.30638    99.972562    99.972562    129.99451    1299231.9    402.99925 
   12700   -58827.568   -1108.2629   -1635.1711   -1401.2851   -288.33241    99.972562    99.972562    129.99451    1299231.9    404.78557 
   12800   -58829.487   -985.32356   -1572.8045   -1246.7503   -136.41597    99.972562    99.972562    129.99451    1299231.9    403.90619 
   12900   -58830.879   -1022.2805   -1535.4453   -1396.5563   -134.83976    99.972562    99.972562    129.99451    1299231.9    402.53536 
   13000   -58836.748   -1024.5297   -1566.3393   -1331.8595   -175.39036    99.972562    99.972562    129.99451    1299231.9    404.13592 
   13100   -58836.084   -1013.7141   -1569.0581   -1282.1088   -189.97542    99.972562    99.972562    129.99451    1299231.9    401.85185 
   13200   -58843.822   -939.42457   -1509.4015    -1313.933    5.0607613    99.972562    99.972562    129.99451    1299231.9    404.53801 
   13300   -58838.915   -1050.6235   -1580.3192   -1317.0874   -254.46381    99.972562    99.972562    129.99451    1299231.9    400.08327 
   13400   -58847.453    -1002.582   -1652.4962   -1218.9253   -136.32445    99.972562    99.972562    129.99451    1299231.9    403.46286 
   13500   -58845.124   -1049.9507   -1666.0069   -1304.6174   -179.22774    99.972562    99.972562    129.99451    1299231.9    400.49183 
   13600   -58847.117   -1019.3648   -1608.9924   -1348.1684   -100.93358    99.972562    99.972562    129.99451    1299231.9    399.68298 
   13700   -58848.867   -968.73699   -1542.0603   -1327.4462   -36.704494    99.972562    99.972562    129.99451    1299231.9    399.18449 
   13800   -58850.058   -967.52694   -1534.6478    -1265.157    -102.7761    99.972562    99.972562    129.99451    1299231.9    397.67231 
   13900   -58852.417   -1013.8968   -1629.8729   -1263.2135   -148.60416    99.972562    99.972562    129.99451    1299231.9    397.16585 
   14000    -58854.01   -1014.2876   -1597.5371   -1317.3484   -127.97725    99.972562    99.972562    129.99451    1299231.9    396.23886 
   14100   -58856.244   -972.99417   -1591.5333   -1284.9199   -42.529241    99.972562    99.972562    129.99451    1299231.9    395.59662 
   14200   -58856.019   -1005.6275   -1605.7317   -1262.8678   -148.28313    99.972562    99.972562    129.99451    1299231.9    394.30345 
   14300   -58859.281   -1078.4958   -1693.6599   -1335.7778   -206.04984    99.972562    99.972562    129.99451    1299231.9    394.97288 
   14400   -58857.661   -1073.5861   -1627.1431   -1340.5907   -253.02438    99.972562    99.972562    129.99451    1299231.9    392.16045 
   14500   -58862.381   -1041.3957   -1688.9683   -1252.4656   -182.75312    99.972562    99.972562    129.99451    1299231.9    393.40409 
   14600   -58864.107   -1078.1618     -1641.44   -1376.1894   -216.85601    99.972562    99.972562    129.99451    1299231.9    393.64294 
   14700   -58875.023   -1066.5986   -1595.9266   -1370.0956   -233.77363    99.972562    99.972562    129.99451    1299231.9    398.52311 
   14800   -58861.248   -935.29276   -1546.4794   -1184.0596   -75.339243    99.972562    99.972562    129.99451    1299231.9    388.81113 
   14900   -58856.927   -872.50688   -1506.0633   -1142.4374    30.980069    99.972562    99.972562    129.99451    1299231.9    385.58085 
   15000   -58870.964   -853.62855   -1456.3596   -1114.0982    9.5722327    99.972562    99.972562    129.99451    1299231.9    392.65901 
   15100   -58869.185   -922.74928   -1486.4772   -1269.8841   -11.886566    99.972562    99.972562    129.99451    1299231.9    389.94361 
   15200   -58872.838   -902.24717   -1502.9177   -1156.2674   -47.556457    99.972562    99.972562    129.99451    1299231.9    390.76892 
   15300   -58870.485   -893.11799   -1394.4342   -1222.2625   -62.657269    99.972562    99.972562    129.99451    1299231.9    387.86969 
   15400   -58878.321   -850.25892   -1406.6918    -1275.253    131.16811    99.972562    99.972562    129.99451    1299231.9     390.7512 
   15500   -58873.964   -902.77807   -1455.6348   -1260.1884    7.4889941    99.972562    99.972562    129.99451    1299231.9    386.70495 
   15600   -58875.237   -1003.7628    -1515.891   -1353.6901   -141.70724    99.972562    99.972562    129.99451    1299231.9    385.88448 
   15700   -58879.284   -1037.4206    -1564.704   -1375.4985   -172.05936    99.972562    99.972562    129.99451    1299231.9    386.66802 
   15800   -58882.753    -1092.832   -1627.0562   -1428.2984   -223.14127    99.972562    99.972562    129.99451    1299231.9    387.55496 
   15900    -58874.92   -1054.5057   -1632.0303   -1413.7752   -117.71153    99.972562    99.972562    129.99451    1299231.9    381.49626 
   16000   -58875.666    -1048.072   -1680.5756   -1356.3212   -107.31936    99.972562    99.972562    129.99451    1299231.9    380.81544 
   16100   -58880.604   -1146.1781   -1774.4644   -1328.2206   -335.84911    99.972562    99.972562    129.99451    1299231.9    382.09591 
   16200   -58889.752   -1188.2888   -1732.0169    -1499.299   -333.55059    99.972562    99.972562    129.99451    1299231.9    385.81029 
   16300   -58886.581   -1202.7631   -1704.5269   -1545.1313    -358.6311    99.972562    99.972562    129.99451    1299231.9    382.44286 
   16400   -58890.317   -1201.1251    -1823.246   -1484.1475   -295.98173    99.972562    99.972562    129.99451    1299231.9    382.94676 
   16500   -58890.347   -1191.4094   -1667.7864   -1506.1028     -400.339    99.972562    99.972562    129.99451    1299231.9    381.29965 
   16600   -58888.167   -1149.7877   -1677.5776   -1450.5507   -321.23501    99.972562    99.972562    129.99451    1299231.9    378.43133 
   16700    -58895.35   -1068.7322   -1563.4441   -1379.9459   -262.80663    99.972562    99.972562    129.99451    1299231.9    381.12662 
   16800   -58895.598   -1013.1881   -1588.8087   -1392.2646   -58.491156    99.972562    99.972562    129.99451    1299231.9    379.92285 
   16900   -58899.066   -920.80295   -1494.0224   -1307.5466    39.160111    99.972562    99.972562    129.99451    1299231.9    381.03763 
   17000   -58903.244    -929.9466   -1559.3173   -1253.7393    23.216845    99.972562    99.972562    129.99451    1299231.9      382.508 
   17100   -58899.597   -910.67078   -1554.7242   -1187.0518    9.7636476    99.972562    99.972562    129.99451    1299231.9    378.91208 
   17200   -58896.888   -894.92281   -1420.8628   -1243.8011   -20.104567    99.972562    99.972562    129.99451    1299231.9    376.23337 
   17300   -58894.353   -899.50201   -1454.6036   -1262.3585    18.456095    99.972562    99.972562    129.99451    1299231.9     373.8976 
   17400   -58898.929   -963.04989    -1570.937   -1238.2479   -79.964717    99.972562    99.972562    129.99451    1299231.9     375.1572 
   17500   -58905.063   -1000.2373   -1637.8608   -1339.0605   -23.790596    99.972562    99.972562    129.99451    1299231.9    377.34913 
   17600     -58910.4   -1000.5341   -1595.2375   -1355.1969   -51.168005    99.972562    99.972562    129.99451    1299231.9    379.25232 
   17700   -58910.408   -970.16884   -1507.2864   -1274.8472   -128.37297    99.972562    99.972562    129.99451    1299231.9    377.58987 
   17800   -58908.852   -935.40041   -1507.5973   -1260.8881     -37.7158    99.972562    99.972562    129.99451    1299231.9    375.15749 
   17900   -58911.666   -1077.3154   -1596.6698   -1390.3936   -244.88283    99.972562    99.972562    129.99451    1299231.9    375.84026 
   18000   -58910.261   -1068.2218   -1644.0791   -1361.5811   -199.00529    99.972562    99.972562    129.99451    1299231.9    373.93207 
   18100   -58910.472   -1060.3324   -1625.7956   -1394.2947   -160.90702    99.972562    99.972562    129.99451    1299231.9    373.14199 
   18200   -58909.283   -1155.1089   -1836.4562   -1502.3607   -126.50971    99.972562    99.972562    129.99451    1299231.9    371.54395 
   18300    -58913.14   -1171.5041    -1856.552   -1457.5713    -200.3891    99.972562    99.972562    129.99451    1299231.9     372.2981 
   18400   -58922.615   -1156.5067   -1755.9752   -1471.4967   -242.04813    99.972562    99.972562    129.99451    1299231.9    376.63292 
   18500   -58916.863    -1083.827   -1716.5356    -1432.784   -102.16159    99.972562    99.972562    129.99451    1299231.9    371.98023 
   18600   -58918.908   -1161.6201   -1709.0223   -1562.0514   -213.78644    99.972562    99.972562    129.99451    1299231.9    372.05485 
   18700       -58918   -1128.0689   -1763.6175   -1394.7248   -225.86444    99.972562    99.972562    129.99451    1299231.9    370.47652 
   18800   -58922.467   -1156.1493   -1723.9017    -1520.935   -223.61109    99.972562    99.972562    129.99451    1299231.9    371.97429 
   18900   -58921.509   -1088.4672   -1676.1341   -1362.5968   -226.67055    99.972562    99.972562    129.99451    1299231.9    370.65463 
   19000   -58927.395   -1066.8605   -1729.4335   -1393.7794   -77.368503    99.972562    99.972562    129.99451    1299231.9    372.58804 
   19100   -58920.418   -1028.3674   -1709.8896   -1383.4146    8.2020002    99.972562    99.972562    129.99451    1299231.9     367.4892 
   19200   -58926.005   -1067.8668   -1704.6055   -1395.8566    -103.1384    99.972562    99.972562    129.99451    1299231.9     369.8552 
   19300   -58929.413   -1131.8178   -1783.6449   -1413.2208   -198.58766    99.972562    99.972562    129.99451    1299231.9    370.62151 
   19400   -58927.991   -1120.8764   -1800.9487   -1391.7355    -169.9451    99.972562    99.972562    129.99451    1299231.9    368.30538 
   19500   -58924.809   -1061.9303   -1793.9421   -1317.8908   -73.958094    99.972562    99.972562    129.99451    1299231.9    365.23197 
   19600   -58928.994   -1050.1619   -1738.3803   -1352.8739   -59.231603    99.972562    99.972562    129.99451    1299231.9    365.92344 
   19700   -58935.148   -1008.1094   -1728.3537   -1323.0881     27.11357    99.972562    99.972562    129.99451    1299231.9    367.54451 
   19800    -58938.57   -1040.2689   -1662.8372   -1368.2896   -89.680048    99.972562    99.972562    129.99451    1299231.9    368.83533 
   19900   -58929.147   -996.98156   -1589.5447   -1357.0786   -44.321357    99.972562    99.972562    129.99451    1299231.9    362.37755 
   20000   -58936.895   -1100.5056   -1722.5692   -1509.1048   -69.842821    99.972562    99.972562    129.99451    1299231.9    366.42284 
   20100    -58933.92   -1074.7838   -1664.1012   -1454.3916   -105.85852    99.972562    99.972562    129.99451    1299231.9    363.95214 
   20200    -58933.43   -1100.6701   -1670.6889   -1484.1152   -147.20613    99.972562    99.972562    129.99451    1299231.9    362.96261 
   20300    -58936.94    -1173.529   -1816.2841   -1536.5858   -167.71714    99.972562    99.972562    129.99451    1299231.9     363.9641 
   20400   -58937.241   -1168.1337    -1740.374   -1552.4883   -211.53881    99.972562    99.972562    129.99451    1299231.9    362.55314 
   20500   -58933.174   -1186.0672   -1763.4332   -1532.1075   -262.66085    99.972562    99.972562    129.99451    1299231.9    358.70715 
   20600   -58941.985   -1184.4155     -1710.53   -1587.1483   -255.56821    99.972562    99.972562    129.99451    1299231.9    362.46456 
   20700   -58940.501   -1234.0789   -1761.7023   -1724.7507   -215.78374    99.972562    99.972562    129.99451    1299231.9    360.83294 
   20800   -58939.551   -1256.9447   -1846.0642   -1638.8941   -285.87574    99.972562    99.972562    129.99451    1299231.9    359.09242 
   20900   -58940.837   -1253.7733   -1861.0772    -1615.265   -284.97763    99.972562    99.972562    129.99451    1299231.9    358.70892 
   21000   -58940.631    -1203.802   -1851.6849   -1557.2504   -202.47073    99.972562    99.972562    129.99451    1299231.9    357.62686 
   21100   -58945.495   -1115.4513   -1702.6797    -1529.077   -114.59706    99.972562    99.972562    129.99451    1299231.9    358.95671 
   21200   -58946.242   -1054.0631   -1713.5597   -1477.7745    29.144876    99.972562    99.972562    129.99451    1299231.9    358.14636 
   21300   -58945.133   -1031.0462   -1686.7869   -1444.7303    38.378508    99.972562    99.972562    129.99451    1299231.9    356.57913 
   21400   -58955.792   -1032.9045    -1659.045   -1363.7666   -75.902009    99.972562    99.972562    129.99451    1299231.9    361.59088 
   21500   -58945.165   -995.96435   -1628.8287   -1389.3485    30.284109    99.972562    99.972562    129.99451    1299231.9     354.2293 
   21600   -58951.685   -986.10958   -1689.2902   -1335.2507    66.212116    99.972562    99.972562    129.99451    1299231.9    357.07252 
   21700   -58955.102   -1014.2867   -1579.6036   -1470.7465    7.4900042    99.972562    99.972562    129.99451    1299231.9    357.86785 
   21800   -58955.619   -1034.1037   -1669.8091   -1429.2296   -3.2725365    99.972562    99.972562    129.99451    1299231.9    357.14274 
   21900   -58955.329   -1162.6177   -1806.3587   -1490.5518   -190.94243    99.972562    99.972562    129.99451    1299231.9     355.8724 
   22000   -58954.279   -1100.2767    -1845.623   -1417.3727   -37.834488    99.972562    99.972562    129.99451    1299231.9     354.2198 
   22100   -58962.671   -1251.9354   -1904.0397   -1636.8165    -214.9501    99.972562    99.972562    129.99451    1299231.9    358.18217 
   22200   -58962.933   -1300.6952     -1960.85   -1770.9484   -170.28706    99.972562    99.972562    129.99451    1299231.9    357.27142 
   22300   -58957.113    -1336.001   -1964.7446   -1667.9794   -375.27898    99.972562    99.972562    129.99451    1299231.9    352.77728 
   22400   -58957.659   -1299.6784   -1866.9271   -1592.4932   -439.61495    99.972562    99.972562    129.99451    1299231.9    351.89585 
   22500   -58961.629   -1231.0181   -1817.5134   -1626.7558   -248.78511    99.972562    99.972562    129.99451    1299231.9    353.08799 
   22600    -58960.44   -1267.8733   -1926.4626   -1576.2317   -300.92568    99.972562    99.972562    129.99451    1299231.9    351.14362 
   22700   -58958.945   -1197.1072   -1829.1712   -1570.7772   -191.37334    99.972562    99.972562    129.99451    1299231.9     349.1103 
   22800   -58959.571   -1177.4015   -1754.5605   -1520.7005   -256.94365    99.972562    99.972562    129.99451    1299231.9    348.38435 
   22900    -58962.75   -1097.9983   -1696.3187   -1500.4984   -97.177835    99.972562    99.972562    129.99451    1299231.9    349.04041 
   23000   -58972.022   -1194.7753   -1797.7706   -1636.6422    -149.9132    99.972562    99.972562    129.99451    1299231.9    352.75058 
   23100   -58970.306   -1057.8986   -1654.9663   -1434.3403   -84.389238    99.972562    99.972562    129.99451    1299231.9    350.37026 
   23200   -58974.447   -1002.5694   -1644.6202   -1380.8648    17.776909    99.972562    99.972562    129.99451    1299231.9    352.07108 
   23300   -58970.541   -973.57081   -1634.8406   -1407.0082    121.13638    99.972562    99.972562    129.99451    1299231.9    348.79337 
   23400   -58967.867   -932.06811   -1572.3636   -1338.3003    114.45958    99.972562    99.972562    129.99451    1299231.9    346.15661 
   23500   -58975.123   -980.50048   -1660.5085   -1315.2805    34.287589    99.972562    99.972562    129.99451    1299231.9    349.26734 
   23600   -58972.478   -1037.7569   -1721.8896   -1460.5442    69.163176    99.972562    99.972562    129.99451    1299231.9    346.97693 
   23700   -58971.696    -1038.495   -1673.1844   -1411.2502   -31.050519    99.972562    99.972562    129.99451    1299231.9    345.63407 
   23800    -58976.27   -1069.4147   -1689.3718   -1450.4654   -68.406958    99.972562    99.972562    129.99451    1299231.9    347.76444 
   23900   -58974.106   -1063.7701   -1694.8643   -1463.6856    -32.76037    99.972562    99.972562    129.99451    1299231.9    345.72482 
   24000   -58979.499   -1136.2012   -1688.1883   -1592.4522   -127.96307    99.972562    99.972562    129.99451    1299231.9    348.35487 
   24100   -58974.572   -1197.2216   -1726.1678   -1572.9926   -292.50449    99.972562    99.972562    129.99451    1299231.9    344.90612 
   24200   -58977.137   -1261.0312   -1868.8628   -1639.8878   -274.34293    99.972562    99.972562    129.99451    1299231.9    345.49897 
   24300   -58977.493    -1256.058   -1882.9667   -1656.9045   -228.30271    99.972562    99.972562    129.99451    1299231.9    344.85367 
   24400   -58981.141   -1253.7846   -1865.0044   -1612.9945   -283.35504    99.972562    99.972562    129.99451    1299231.9    346.36071 
   24500   -58977.916   -1275.8235   -1897.4783     -1635.18   -294.81211    99.972562    99.972562    129.99451    1299231.9    343.88179 
   24600   -58974.538    -1248.104   -1843.5039   -1699.9174    -200.8906    99.972562    99.972562    129.99451    1299231.9    341.14775 
   24700   -58974.201   -1250.9119   -1755.7036   -1555.7897   -441.24252    99.972562    99.972562    129.99451    1299231.9    340.02909 
   24800   -58983.393   -1235.8384   -1817.4974     -1556.71   -333.30769    99.972562    99.972562    129.99451    1299231.9    344.64834 
   24900   -58983.314   -1129.1805   -1711.5785   -1509.0566   -166.90632    99.972562    99.972562    129.99451    1299231.9    344.08742 
   25000   -58984.223   -1024.3075   -1578.3199   -1405.5155   -89.087055    99.972562    99.972562    129.99451    1299231.9    343.94762 
   25100     -58985.6   -971.83101   -1586.6135   -1399.3123    70.432797    99.972562    99.972562    129.99451    1299231.9    344.03729 
   25200   -58985.968   -982.59245   -1599.4524   -1384.0712    35.746236    99.972562    99.972562    129.99451    1299231.9    343.19612 
   25300   -58989.264   -939.53537     -1578.79   -1367.0224    127.20629    99.972562    99.972562    129.99451    1299231.9    344.31957 
   25400   -58983.363   -876.08792   -1477.5236   -1385.2498    234.50959    99.972562    99.972562    129.99451    1299231.9    339.73108 
   25500   -58984.627   -919.85568   -1545.7836   -1348.6651    134.88165    99.972562    99.972562    129.99451    1299231.9    339.66577 
   25600   -58985.917   -898.13475   -1440.1445   -1318.0535    63.793705    99.972562    99.972562    129.99451    1299231.9    339.72267 
   25700   -58988.611   -1035.7722   -1596.1304    -1453.506   -57.680284    99.972562    99.972562    129.99451    1299231.9    340.38417 
   25800   -58992.478   -1049.1597   -1589.3371   -1464.3776    -93.76434    99.972562    99.972562    129.99451    1299231.9    341.34225 
   25900   -58996.164   -1154.3566   -1724.6768   -1511.8005    -226.5926    99.972562    99.972562    129.99451    1299231.9    342.72875 
   26000   -58990.284   -1128.7096    -1784.312   -1495.4507   -106.36625    99.972562    99.972562    129.99451    1299231.9    338.28128 
   26100   -58990.262   -1158.5293   -1729.7074   -1572.1858   -173.69468    99.972562    99.972562    129.99451    1299231.9    337.38105 
   26200   -58996.515   -1270.7343   -1908.7304   -1559.5446   -343.92775    99.972562    99.972562    129.99451    1299231.9    340.25514 
   26300   -58995.835   -1311.3427   -1874.2858   -1700.6926   -359.04975    99.972562    99.972562    129.99451    1299231.9    339.07866 
   26400   -58999.057   -1367.2682   -1929.5461   -1744.8399    -427.4186    99.972562    99.972562    129.99451    1299231.9    340.24494 
   26500    -58994.03   -1345.9811    -1852.862   -1698.2428   -486.83838    99.972562    99.972562    129.99451    1299231.9    336.78781 
   26600   -58997.039   -1323.6565   -1945.1178   -1753.2965   -272.55515    99.972562    99.972562    129.99451    1299231.9     337.8122 
   26700    -58999.13   -1260.9488   -1846.4794   -1603.0397   -333.32717    99.972562    99.972562    129.99451    1299231.9    338.75741 
   26800   -58998.166    -1114.721   -1605.9038   -1548.7085   -189.55057    99.972562    99.972562    129.99451    1299231.9    337.78945 
   26900   -58996.531   -1066.1987   -1609.6429   -1488.6369   -100.31618    99.972562    99.972562    129.99451    1299231.9     335.9965 
   27000   -58997.544   -961.95887    -1535.494   -1395.6082    45.225586    99.972562    99.972562    129.99451    1299231.9     335.5832 
   27100    -58997.32   -964.77223   -1572.1864   -1370.7709    48.640599    99.972562    99.972562    129.99451    1299231.9    335.07192 
   27200   -58997.111    -943.5348   -1549.8264   -1373.9965    93.218484    99.972562    99.972562    129.99451    1299231.9    334.92637 
   27300   -59002.908   -938.44975   -1500.8227   -1403.5703    89.043724    99.972562    99.972562    129.99451    1299231.9    337.66568 
   27400   -58998.425   -887.92163   -1567.4249   -1255.5471    159.20711    99.972562    99.972562    129.99451    1299231.9    334.93233 
   27500   -59003.904   -973.46924   -1671.6437   -1357.3245    108.56048    99.972562    99.972562    129.99451    1299231.9    337.53411 
   27600   -58995.334   -1083.5853   -1715.3099   -1490.5182   -44.927875    99.972562    99.972562    129.99451    1299231.9    331.78516 
   27700   -59003.677   -1045.5488   -1637.8189   -1419.6079   -79.219711    99.972562    99.972562    129.99451    1299231.9    336.54497 
   27800    -59001.47   -1099.2763   -1771.6006   -1439.3219   -86.906421    99.972562    99.972562    129.99451    1299231.9    334.62373 
   27900   -59005.002   -1135.3646    -1858.446   -1476.2425   -71.405104    99.972562    99.972562    129.99451    1299231.9    335.61455 
   28000   -59003.734   -1235.9109   -1862.2359   -1560.8383   -284.65837    99.972562    99.972562    129.99451    1299231.9    334.11754 
   28100   -59004.088   -1309.8707    -1866.628   -1689.9703   -373.01375    99.972562    99.972562    129.99451    1299231.9    333.58094 
   28200   -59002.976   -1307.2619   -1901.7371   -1637.3094   -382.73933    99.972562    99.972562    129.99451    1299231.9     332.0335 
   28300   -59002.718   -1275.8353   -1897.1536   -1638.8785   -291.47384    99.972562    99.972562    129.99451    1299231.9    330.94799 
   28400   -59005.693    -1291.296   -1924.4728   -1610.7343   -338.68107    99.972562    99.972562    129.99451    1299231.9    332.03666 
   28500   -59009.533    -1227.081   -1774.9956   -1557.7806   -348.46687    99.972562    99.972562    129.99451    1299231.9    333.04467 
   28600   -59002.731   -1167.5365   -1794.8538   -1590.7105   -117.04517    99.972562    99.972562    129.99451    1299231.9    328.67392 
   28700   -59007.411   -1161.2707   -1754.9779   -1605.4473   -123.38688    99.972562    99.972562    129.99451    1299231.9     330.2303 
   28800   -59015.414   -1076.6383   -1624.4495   -1481.8486    -123.6167    99.972562    99.972562    129.99451    1299231.9    334.32341 
   28900   -59009.909   -1104.3178   -1684.7724   -1457.3152    -170.8657    99.972562    99.972562    129.99451    1299231.9    330.79224 
   29000   -59005.758   -984.76029   -1580.2803   -1427.7938    53.793276    99.972562    99.972562    129.99451    1299231.9    328.01867 
   29100   -59012.524   -960.42654   -1620.4054   -1369.4321     108.5578    99.972562    99.972562    129.99451    1299231.9    331.47278 
   29200   -59013.687   -1013.3854   -1672.4034   -1365.0171   -2.7356115    99.972562    99.972562    129.99451    1299231.9    331.82753 
   29300   -59012.648   -1006.3555   -1595.3445   -1389.3658    -34.35605    99.972562    99.972562    129.99451    1299231.9    331.17368 
   29400   -59014.494   -1034.8889   -1586.2171   -1519.2545   0.80499311    99.972562    99.972562    129.99451    1299231.9    331.28853 
   29500   -59016.061     -1006.27   -1592.7168   -1386.6593   -39.433987    99.972562    99.972562    129.99451    1299231.9     331.8314 
   29600   -59012.863   -1016.9689    -1674.736   -1420.7148    44.544134    99.972562    99.972562    129.99451    1299231.9    329.75517 
   29700   -59014.409   -1121.1211   -1698.9389   -1521.7913   -142.63292    99.972562    99.972562    129.99451    1299231.9    330.17042 
   29800   -59013.804   -1171.5187   -1787.1041   -1516.1377   -211.31427    99.972562    99.972562    129.99451    1299231.9    329.30506 
   29900   -59015.607   -1180.4339   -1713.8997   -1601.0635   -226.33848    99.972562    99.972562    129.99451    1299231.9    330.25103 
   30000   -59011.743   -1247.7988   -1820.5208   -1686.0854   -236.78998    99.972562    99.972562    129.99451    1299231.9    327.77432 
   30100   -59015.399   -1244.5899   -1836.6084   -1651.9754   -245.18584    99.972562    99.972562    129.99451    1299231.9    329.03347 
   30200   -59007.633   -1265.9574   -1846.7527   -1657.6957    -293.4239    99.972562    99.972562    129.99451    1299231.9     324.0936 
   30300   -59014.502   -1222.1325   -1785.1708   -1636.3267   -244.90006    99.972562    99.972562    129.99451    1299231.9    327.32165 
   30400   -59015.398   -1293.0675    -1855.421   -1689.9863   -333.79525    99.972562    99.972562    129.99451    1299231.9    326.90032 
   30500   -59013.978   -1272.4272   -1926.9742   -1616.6597   -273.64764    99.972562    99.972562    129.99451    1299231.9    325.61097 
   30600   -59013.349   -1098.9495   -1750.4767   -1535.0015   -11.370203    99.972562    99.972562    129.99451    1299231.9    324.63492 
   30700   -59022.152   -1147.9854    -1702.103   -1584.6163     -157.237    99.972562    99.972562    129.99451    1299231.9    329.06585 
   30800   -59021.053   -1208.4561   -1775.6819   -1639.2471   -210.43918    99.972562    99.972562    129.99451    1299231.9    327.88826 
   30900   -59013.111   -1114.7605   -1654.8904   -1595.0944   -94.296678    99.972562    99.972562    129.99451    1299231.9     322.4353 
   31000    -59022.86   -1092.9439    -1654.941   -1509.6942   -114.19649    99.972562    99.972562    129.99451    1299231.9    327.33233 
   31100   -59025.646   -951.88312   -1585.4712   -1348.6492    78.471057    99.972562    99.972562    129.99451    1299231.9    328.10776 
   31200   -59018.265   -961.82556    -1542.455   -1379.5041    36.482414    99.972562    99.972562    129.99451    1299231.9    323.78392 
   31300   -59017.883   -913.48098   -1527.8304   -1331.0086    118.39613    99.972562    99.972562    129.99451    1299231.9    323.23855 
   31400    -59021.29   -962.80268    -1512.149   -1379.0906    2.8315223    99.972562    99.972562    129.99451    1299231.9    324.59431 
   31500   -59024.581   -1027.8239   -1652.5399   -1432.4752    1.5434664    99.972562    99.972562    129.99451    1299231.9    325.85469 
   31600   -59028.805   -1072.1426    -1679.652   -1423.9563   -112.81957    99.972562    99.972562    129.99451    1299231.9    327.71283 
   31700   -59023.719   -1086.4244   -1651.2889   -1525.2793    -82.70486    99.972562    99.972562    129.99451    1299231.9     324.3999 
   31800   -59023.598   -1163.4386   -1783.3032   -1513.6579    -193.3547    99.972562    99.972562    129.99451    1299231.9    323.93359 
   31900   -59019.923   -1202.8818   -1879.6556   -1510.6931   -218.29679    99.972562    99.972562    129.99451    1299231.9    321.21394 
   32000   -59024.175   -1186.7615   -1801.1134   -1594.4665   -164.70468    99.972562    99.972562    129.99451    1299231.9    323.21526 
   32100   -59022.354   -1237.9413   -1902.2819   -1648.6461   -162.89598    99.972562    99.972562    129.99451    1299231.9     321.6977 
   32200   -59026.475   -1337.2179   -1939.4055   -1743.9416   -328.30667    99.972562    99.972562    129.99451    1299231.9    323.27226 
   32300   -59022.394    -1327.157   -1906.1141   -1747.5253   -327.83164    99.972562    99.972562    129.99451    1299231.9    320.39954 
   32400   -59026.053   -1239.8529   -1817.2976   -1592.0643   -310.19685    99.972562    99.972562    129.99451    1299231.9    321.72381 
   32500   -59029.217   -1229.0003   -1817.0354   -1639.3238   -230.64155    99.972562    99.972562    129.99451    1299231.9    322.91219 
   32600   -59029.735    -1181.101   -1751.9356   -1603.4346   -187.93268    99.972562    99.972562    129.99451    1299231.9    322.57965 
   32700   -59023.637   -1173.1004   -1783.6315    -1559.623    -176.0468    99.972562    99.972562    129.99451    1299231.9    318.94837 
   32800   -59028.672   -1148.2392   -1811.3093   -1475.5973    -157.8111    99.972562    99.972562    129.99451    1299231.9     321.5323 
   32900   -59029.114   -1090.9788    -1722.878   -1526.3178   -23.740634    99.972562    99.972562    129.99451    1299231.9    321.38168 
   33000   -59030.014   -1054.5011   -1688.8033   -1492.9511    18.250988    99.972562    99.972562    129.99451    1299231.9    321.53585 
   33100   -59025.327   -1041.6455    -1695.595   -1460.5721    31.230466    99.972562    99.972562    129.99451    1299231.9    317.99719 
   33200   -59034.907    -1078.811   -1730.8881   -1577.8152    72.270213    99.972562    99.972562    129.99451    1299231.9    322.57037 
   33300   -59030.097   -1018.1803   -1596.0354   -1509.6393    51.133687    99.972562    99.972562    129.99451    1299231.9    319.35899 
   33400   -59030.609   -1118.0708   -1644.4522    -1599.235    -110.5253    99.972562    99.972562    129.99451    1299231.9    319.01405 
   33500   -59030.958   -1120.3219   -1761.6478   -1430.0358   -169.28199    99.972562    99.972562    129.99451    1299231.9    319.05314 
   33600   -59030.493    -1143.853    -1795.911   -1533.3789   -102.26893    99.972562    99.972562    129.99451    1299231.9    318.66376 
   33700   -59026.726   -1065.4298   -1659.3259   -1456.5751   -80.388364    99.972562    99.972562    129.99451    1299231.9    316.25124 
   33800   -59032.872   -1154.6555   -1755.9274   -1522.1335   -185.90566    99.972562    99.972562    129.99451    1299231.9    319.23781 
   33900   -59034.181   -1183.5984   -1764.4524   -1555.0055   -231.33732    99.972562    99.972562    129.99451    1299231.9    319.35219 
   34000   -59036.804   -1164.9798   -1780.7469   -1569.0384   -145.15407    99.972562    99.972562    129.99451    1299231.9    320.14338 
   34100   -59031.676   -1191.5129    -1805.726   -1563.5638   -205.24899    99.972562    99.972562    129.99451    1299231.9    316.83266 
   34200   -59032.185   -1221.5829   -1796.5046   -1612.8354   -255.40884    99.972562    99.972562    129.99451    1299231.9    316.60531 
   34300   -59034.429   -1238.4226   -1860.3135   -1580.9896   -273.96478    99.972562    99.972562    129.99451    1299231.9    317.61642 
   34400   -59037.088   -1189.4881   -1803.5609   -1604.1818   -160.72173    99.972562    99.972562    129.99451    1299231.9    319.06092 
   34500   -59036.833   -1202.2887   -1829.9791   -1582.8983   -193.98865    99.972562    99.972562    129.99451    1299231.9     318.3539 
   34600   -59031.991   -1141.7019   -1721.7541   -1580.1359   -123.21585    99.972562    99.972562    129.99451    1299231.9    315.47911 
   34700    -59034.28   -1085.8129   -1643.5624   -1489.9088   -123.96761    99.972562    99.972562    129.99451    1299231.9    316.18048 
   34800   -59037.763   -1103.2206   -1726.2513   -1470.0311   -113.37924    99.972562    99.972562    129.99451    1299231.9    317.89757 
   34900   -59037.844   -1022.8091   -1612.5977   -1466.7519    10.922384    99.972562    99.972562    129.99451    1299231.9    317.20744 
   35000   -59036.276   -997.26976   -1550.1578    -1408.292   -33.359566    99.972562    99.972562    129.99451    1299231.9    315.89306 
   35100   -59035.445   -1056.8271   -1665.7994   -1477.0436   -27.638239    99.972562    99.972562    129.99451    1299231.9    315.06171 
   35200   -59040.198   -1065.8528   -1636.0382   -1489.1403   -72.379725    99.972562    99.972562    129.99451    1299231.9    317.51716 
   35300   -59041.136   -1108.1835   -1663.4937   -1589.7628   -71.293932    99.972562    99.972562    129.99451    1299231.9    317.33812 
   35400   -59039.073   -1105.8554   -1723.6448   -1504.0177   -89.903551    99.972562    99.972562    129.99451    1299231.9    315.72158 
   35500   -59040.313   -1097.3415   -1663.6915   -1500.3582   -127.97466    99.972562    99.972562    129.99451    1299231.9    315.88852 
   35600   -59041.512   -1149.9514   -1723.9274   -1522.8763   -203.05058    99.972562    99.972562    129.99451    1299231.9    316.26023 
   35700   -59034.623   -1168.8358   -1704.2234   -1506.6092   -295.67466    99.972562    99.972562    129.99451    1299231.9    312.06872 
   35800    -59041.82   -1127.1724   -1669.2219   -1556.7645   -155.53091    99.972562    99.972562    129.99451    1299231.9     315.9729 
   35900   -59047.393   -1188.2799   -1788.8634   -1634.5935   -141.38278    99.972562    99.972562    129.99451    1299231.9    319.33137 
   36000   -59040.985   -1187.2542   -1703.5372   -1625.7556   -232.46959    99.972562    99.972562    129.99451    1299231.9    315.38624 
   36100   -59038.768   -1128.4507    -1683.595   -1569.0376   -132.71958    99.972562    99.972562    129.99451    1299231.9    313.53715 
   36200   -59040.839   -1133.9811   -1646.7685   -1636.2969   -118.87807    99.972562    99.972562    129.99451    1299231.9    314.18043 
   36300   -59044.913   -1179.4979   -1750.5882   -1547.6162   -240.28931    99.972562    99.972562    129.99451    1299231.9     315.7074 
   36400   -59046.479   -1163.6876   -1765.8604   -1595.7187   -129.48357    99.972562    99.972562    129.99451    1299231.9    316.05312 
   36500   -59050.054   -1152.9953   -1675.5114   -1603.5338   -179.94065    99.972562    99.972562    129.99451    1299231.9    317.97417 
   36600   -59038.651   -1169.7339   -1697.6729   -1589.5405   -221.98816    99.972562    99.972562    129.99451    1299231.9    310.97033 
   36700   -59046.033   -1077.1977   -1682.8148   -1514.2035    -34.57473    99.972562    99.972562    129.99451    1299231.9    314.92838 
   36800    -59044.46    -1043.614   -1609.9021   -1480.5793    -40.36053    99.972562    99.972562    129.99451    1299231.9    313.42414 
   36900   -59050.443   -1093.1604   -1723.4536   -1466.7816   -89.245951    99.972562    99.972562    129.99451    1299231.9    316.58629 
   37000   -59047.098   -1057.8335   -1621.6582   -1475.1005   -76.741663    99.972562    99.972562    129.99451    1299231.9     314.0873 
   37100   -59046.626   -1099.9974   -1570.8087   -1563.0152    -166.1682    99.972562    99.972562    129.99451    1299231.9    313.27669 
   37200   -59047.811   -1076.6385   -1684.0414    -1453.055   -92.819036    99.972562    99.972562    129.99451    1299231.9    313.65844 
   37300   -59050.795   -1083.6763   -1692.0642   -1446.4616   -112.50315    99.972562    99.972562    129.99451    1299231.9    314.75812 
   37400   -59048.495   -1032.6616   -1575.4638   -1402.0432   -120.47774    99.972562    99.972562    129.99451    1299231.9    312.80872 
   37500   -59044.836   -1054.4888   -1619.4804   -1532.3532   -11.632713    99.972562    99.972562    129.99451    1299231.9    310.04959 
   37600   -59051.492   -1011.6273   -1610.8484   -1413.9434   -10.090141    99.972562    99.972562    129.99451    1299231.9    313.32984 
   37700   -59044.674   -1083.6451    -1639.468   -1537.9473    -73.51999    99.972562    99.972562    129.99451    1299231.9    309.70825 
   37800   -59052.238     -1116.07   -1677.5178   -1524.8363     -145.856    99.972562    99.972562    129.99451    1299231.9    314.10528 
   37900   -59048.185   -1051.8262   -1586.5877   -1456.1364   -112.75438    99.972562    99.972562    129.99451    1299231.9    311.42154 
   38000   -59050.647   -1088.8416   -1614.7234   -1412.0847    -239.7168    99.972562    99.972562    129.99451    1299231.9     312.2738 
   38100   -59051.894   -1089.7807   -1673.3147   -1477.2479   -118.77951    99.972562    99.972562    129.99451    1299231.9    312.20838 
   38200   -59053.278   -1061.2394   -1700.4533   -1401.0467   -82.218117    99.972562    99.972562    129.99451    1299231.9    312.50008 
   38300   -59053.077   -1147.0867   -1771.3882   -1540.3072   -129.56473    99.972562    99.972562    129.99451    1299231.9    311.90941 
   38400   -59052.528   -1185.2634   -1726.3078   -1669.8257   -159.65689    99.972562    99.972562    129.99451    1299231.9    310.77907 
   38500   -59052.385   -1154.2762   -1688.3117   -1579.0375   -195.47955    99.972562    99.972562    129.99451    1299231.9    310.12229 
   38600   -59052.523   -1230.0471   -1809.7072   -1602.0652   -278.36892    99.972562    99.972562    129.99451    1299231.9    309.68176 
   38700   -59054.068   -1196.3128   -1723.4349   -1540.6594   -324.84398    99.972562    99.972562    129.99451    1299231.9    310.24703 
   38800   -59050.527    -1165.384    -1756.298   -1547.2091   -192.64482    99.972562    99.972562    129.99451    1299231.9    307.88402 
   38900   -59054.553    -1109.735   -1710.3556   -1483.1303   -135.71919    99.972562    99.972562    129.99451    1299231.9    309.71293 
   39000   -59057.576   -1091.4875   -1689.7215   -1480.4048   -104.33614    99.972562    99.972562    129.99451    1299231.9    310.89737 
   39100   -59052.964    -1124.086   -1674.0002   -1612.4579   -85.799946    99.972562    99.972562    129.99451    1299231.9    307.75368 
   39200    -59062.61   -1144.0733   -1723.7683   -1490.2336   -218.21792    99.972562    99.972562    129.99451    1299231.9    312.63683 
   39300   -59057.137   -1103.5271   -1659.0905   -1593.1075   -58.383399    99.972562    99.972562    129.99451    1299231.9    308.79148 
   39400   -59059.661   -1119.6634   -1748.9228   -1494.6165   -115.45079    99.972562    99.972562    129.99451    1299231.9    309.60801 
   39500   -59055.506    -1056.962   -1715.1245   -1434.0095   -21.751892    99.972562    99.972562    129.99451    1299231.9    306.47237 
   39600   -59066.117   -1008.9086   -1669.1305   -1359.3314    1.7359813    99.972562    99.972562    129.99451    1299231.9    312.28432 
   39700   -59061.346   -1052.9165   -1601.7915   -1434.7439   -122.21398    99.972562    99.972562    129.99451    1299231.9    309.24008 
   39800   -59058.479   -1076.8382    -1638.949   -1487.9644   -103.60122    99.972562    99.972562    129.99451    1299231.9    307.12859 
   39900   -59062.722   -1087.1494   -1646.4174   -1441.7293   -173.30147    99.972562    99.972562    129.99451    1299231.9    309.33183 
   40000   -59056.107   -1030.4953   -1637.5969   -1455.5476    1.6586321    99.972562    99.972562    129.99451    1299231.9    305.31235 
   40100     -59061.8   -1132.2625   -1729.6405   -1521.5661   -145.58096    99.972562    99.972562    129.99451    1299231.9    308.02125 
   40200   -59063.319    -1225.389    -1760.042   -1645.5506   -270.57432    99.972562    99.972562    129.99451    1299231.9    308.40629 
   40300   -59065.016   -1242.4974    -1860.437    -1638.055   -229.00011    99.972562    99.972562    129.99451    1299231.9    309.30443 
   40400   -59059.877   -1192.4924   -1710.0984   -1603.8602   -263.51856    99.972562    99.972562    129.99451    1299231.9    306.50543 
   40500   -59065.838   -1209.0844    -1773.676   -1617.7041   -235.87322    99.972562    99.972562    129.99451    1299231.9    309.95265 
   40600   -59060.807   -1152.2539   -1757.7266   -1515.5343    -183.5007    99.972562    99.972562    129.99451    1299231.9    306.68012 
   40700   -59063.404     -1162.42   -1762.1894   -1523.5302   -201.54045    99.972562    99.972562    129.99451    1299231.9    308.18584 
   40800   -59064.233   -1089.5513   -1712.6414   -1514.9612   -41.051207    99.972562    99.972562    129.99451    1299231.9     308.2598 
   40900   -59061.937   -1182.5372   -1802.9312   -1555.6748   -189.00556    99.972562    99.972562    129.99451    1299231.9    306.82262 
   41000   -59062.317   -1145.5232   -1814.6098   -1514.1504    -107.8094    99.972562    99.972562    129.99451    1299231.9    306.76415 
   41100    -59066.95     -1058.88    -1639.151   -1485.8539   -51.635265    99.972562    99.972562    129.99451    1299231.9     309.0875 
   41200   -59070.266   -998.09967   -1555.0842   -1400.8883    -38.32652    99.972562    99.972562    129.99451    1299231.9     310.5046 
   41300   -59069.449   -1031.8417   -1552.3479   -1452.1896   -90.987499    99.972562    99.972562    129.99451    1299231.9    309.58349 
   41400   -59066.751   -1015.9016   -1614.4034   -1428.5804   -4.7211003    99.972562    99.972562    129.99451    1299231.9    307.60731 
   41500   -59063.455    -1049.858   -1583.8474   -1468.4129   -97.313806    99.972562    99.972562    129.99451    1299231.9    305.26472 
   41600   -59066.177   -1003.7119    -1592.346   -1426.1121    7.3224011    99.972562    99.972562    129.99451    1299231.9    306.47673 
   41700   -59062.198   -1021.3862     -1560.15   -1453.5332   -50.475289    99.972562    99.972562    129.99451    1299231.9    303.78893 
   41800   -59067.482   -1100.3804   -1584.0553   -1562.7786   -154.30729    99.972562    99.972562    129.99451    1299231.9    306.01952 
   41900   -59070.359   -1152.2426   -1702.8168   -1571.8436    -182.0673    99.972562    99.972562    129.99451    1299231.9    307.17518 
   42000   -59063.131   -1099.1094   -1670.9065   -1525.4519   -100.96983    99.972562    99.972562    129.99451    1299231.9    302.72975 
   42100   -59068.946   -1106.7209   -1652.9856   -1560.2189   -106.95826    99.972562    99.972562    129.99451    1299231.9    306.02037 
   42200   -59065.593   -1085.8989   -1636.3198   -1497.3854   -123.99154    99.972562    99.972562    129.99451    1299231.9    303.96376 
   42300    -59067.33   -1120.6097   -1699.1635   -1487.7557   -174.91004    99.972562    99.972562    129.99451    1299231.9    305.08855 
   42400   -59068.469   -1166.3343   -1734.9331   -1498.2185   -265.85136    99.972562    99.972562    129.99451    1299231.9    305.68474 
   42500   -59069.736   -1174.2568   -1679.1084   -1555.4269   -288.23524    99.972562    99.972562    129.99451    1299231.9    306.13905 
   42600   -59069.231   -1169.1114   -1766.4938   -1580.0971   -160.74328    99.972562    99.972562    129.99451    1299231.9    305.35773 
   42700   -59067.205   -1092.8219   -1726.2308   -1455.6402   -96.594717    99.972562    99.972562    129.99451    1299231.9    303.90552 
   42800   -59069.684    -1078.145   -1643.4099   -1443.9424   -147.08279    99.972562    99.972562    129.99451    1299231.9    304.71401 
   42900   -59069.551   -1084.0981   -1676.1775   -1480.3444   -95.772285    99.972562    99.972562    129.99451    1299231.9    303.82571 
   43000   -59073.984   -1124.9967   -1739.3536   -1521.8109   -113.82558    99.972562    99.972562    129.99451    1299231.9    306.30988 
   43100   -59068.906   -1094.7292    -1642.047   -1570.1396   -72.001037    99.972562    99.972562    129.99451    1299231.9    302.51122 
   43200   -59072.166   -1116.3405   -1710.5473   -1519.3104   -119.16384    99.972562    99.972562    129.99451    1299231.9    304.12147 
   43300   -59072.053   -1154.7023   -1741.6633   -1553.8487   -168.59495    99.972562    99.972562    129.99451    1299231.9    303.33776 
   43400   -59077.652   -1066.9842    -1698.289    -1438.353   -64.310471    99.972562    99.972562    129.99451    1299231.9    306.23806 
   43500   -59073.087   -1040.9586   -1616.2762   -1441.4145   -65.185187    99.972562    99.972562    129.99451    1299231.9    303.48936 
   43600   -59069.939   -1151.8832   -1699.8674   -1561.1282   -194.65386    99.972562    99.972562    129.99451    1299231.9    301.19551 
   43700   -59070.481   -1192.4379   -1794.3211   -1559.5108   -223.48172    99.972562    99.972562    129.99451    1299231.9    301.56481 
   43800   -59076.636   -1166.8255   -1786.2403   -1518.6382   -195.59796    99.972562    99.972562    129.99451    1299231.9      304.684 
   43900   -59069.718   -1159.5379   -1771.5151   -1473.5453   -233.55328    99.972562    99.972562    129.99451    1299231.9    300.58113 
   44000   -59080.528   -1099.3417   -1681.8925   -1517.0273    -99.10543    99.972562    99.972562    129.99451    1299231.9    306.45522 
   44100   -59071.957   -1112.5632   -1781.0075   -1484.1411   -72.540841    99.972562    99.972562    129.99451    1299231.9    300.93026 
   44200   -59076.792   -1128.0996   -1733.3163    -1515.766   -135.21659    99.972562    99.972562    129.99451    1299231.9    303.39318 
   44300    -59073.94   -1092.3182   -1648.1489   -1473.1432   -155.66241    99.972562    99.972562    129.99451    1299231.9    301.63056 
   44400   -59075.004   -1097.2318   -1585.1783   -1559.9222   -146.59494    99.972562    99.972562    129.99451    1299231.9    301.73119 
   44500   -59076.663   -1083.2916   -1652.2695   -1526.8644    -70.74101    99.972562    99.972562    129.99451    1299231.9    302.79672 
   44600   -59073.116   -1104.2186   -1627.4602    -1544.531   -140.66463    99.972562    99.972562    129.99451    1299231.9    300.54771 
   44700   -59080.469   -1121.7858   -1730.2261   -1576.1043   -59.027092    99.972562    99.972562    129.99451    1299231.9    304.23169 
   44800   -59076.723   -1123.3252   -1756.6582   -1453.7244   -159.59316    99.972562    99.972562    129.99451    1299231.9    301.54569 
   44900   -59073.905   -1133.5889   -1750.2255   -1520.3752   -130.16592    99.972562    99.972562    129.99451    1299231.9    299.75966 
   45000   -59076.524   -1160.0701   -1723.7042    -1635.393     -121.113    99.972562    99.972562    129.99451    1299231.9    300.95575 
   45100   -59073.519   -1147.8236   -1679.6256   -1613.5676   -150.27765    99.972562    99.972562    129.99451    1299231.9    298.33145 
   45200   -59079.199   -1193.4869    -1738.434   -1645.1211   -196.90558    99.972562    99.972562    129.99451    1299231.9    301.51362 
   45300    -59076.01   -1161.8308   -1656.6254   -1641.8164   -187.05049    99.972562    99.972562    129.99451    1299231.9    299.76751 
   45400   -59077.096   -1168.9977    -1779.739   -1607.7456   -119.50856    99.972562    99.972562    129.99451    1299231.9    300.20085 
   45500   -59076.421   -1123.3033   -1678.1497   -1589.7418   -102.01835    99.972562    99.972562    129.99451    1299231.9     299.7597 
   45600   -59080.822   -1171.9778   -1751.0156    -1545.033   -219.88481    99.972562    99.972562    129.99451    1299231.9    302.04469 
   45700   -59079.183   -1119.7088   -1647.3046   -1543.5129   -168.30899    99.972562    99.972562    129.99451    1299231.9    300.92918 
   45800   -59078.568   -1026.0164   -1503.6532   -1573.3935   -1.0023721    99.972562    99.972562    129.99451    1299231.9     300.4431 
   45900   -59084.321   -1105.7397    -1723.178   -1450.1919   -143.84921    99.972562    99.972562    129.99451    1299231.9    303.69742 
   46000    -59070.87    -1026.221   -1593.0146   -1427.1789   -58.469592    99.972562    99.972562    129.99451    1299231.9    296.04549 
   46100   -59083.348   -1039.6491   -1671.4408   -1421.3143   -26.192346    99.972562    99.972562    129.99451    1299231.9    303.14083 
   46200    -59080.66   -1033.2158   -1589.6205   -1407.9636   -102.06319    99.972562    99.972562    129.99451    1299231.9     301.1138 
   46300   -59082.024   -1052.4366   -1644.2318   -1492.6562   -20.421678    99.972562    99.972562    129.99451    1299231.9    301.54226 
   46400   -59076.265   -1107.0787   -1694.0516    -1541.801   -85.383561    99.972562    99.972562    129.99451    1299231.9    298.08023 
   46500    -59081.58   -1131.3821   -1685.1145   -1597.0884   -111.94336    99.972562    99.972562    129.99451    1299231.9    301.33075 
   46600   -59083.047   -1139.4482   -1738.1781   -1631.0078   -49.158829    99.972562    99.972562    129.99451    1299231.9    302.20363 
   46700   -59077.088   -1181.1622   -1742.6942   -1699.8844   -100.90792    99.972562    99.972562    129.99451    1299231.9    299.03628 
   46800   -59083.285   -1176.2978    -1765.686   -1671.6389   -91.568592    99.972562    99.972562    129.99451    1299231.9    302.62963 
   46900   -59077.019   -1168.3329   -1709.4382   -1659.7878   -135.77274    99.972562    99.972562    129.99451    1299231.9     299.1109 
   47000   -59079.522   -1216.2864   -1741.8713   -1672.8626    -234.1252    99.972562    99.972562    129.99451    1299231.9    300.79889 
   47100   -59079.877   -1271.5538   -1843.1245    -1722.621   -248.91604    99.972562    99.972562    129.99451    1299231.9    300.59573 
   47200   -59079.972   -1304.7367   -1878.9116   -1705.6664   -329.63194    99.972562    99.972562    129.99451    1299231.9    300.46432 
   47300   -59078.749   -1275.0276   -1824.2818   -1683.0037   -317.79723    99.972562    99.972562    129.99451    1299231.9      299.415 
   47400   -59077.781   -1272.3759   -1842.4224   -1727.0787   -247.62666    99.972562    99.972562    129.99451    1299231.9    298.57472 
   47500   -59078.565   -1246.7475   -1789.5677   -1697.6975   -252.97741    99.972562    99.972562    129.99451    1299231.9    299.03653 
   47600   -59081.348   -1195.7785   -1781.8207   -1601.2887   -204.22603    99.972562    99.972562    129.99451    1299231.9    300.55235 
   47700   -59081.033   -1169.6973   -1768.9158   -1617.1876   -122.98851    99.972562    99.972562    129.99451    1299231.9    300.27988 
   47800   -59077.588   -1089.2889   -1662.6989   -1509.4652   -95.702528    99.972562    99.972562    129.99451    1299231.9    298.23408 
   47900   -59079.578   -1112.2778   -1750.3292   -1500.7632   -85.741006    99.972562    99.972562    129.99451    1299231.9    298.97318 
   48000    -59081.81   -1042.9779   -1580.7256    -1534.414   -13.793975    99.972562    99.972562    129.99451    1299231.9    299.77217 
   48100   -59081.267   -1081.5301   -1614.2575   -1606.8038    -23.52919    99.972562    99.972562    129.99451    1299231.9    299.18039 
   48200   -59081.521   -1070.7832    -1630.327   -1545.0284     -36.9943    99.972562    99.972562    129.99451    1299231.9    299.47647 
   48300     -59085.3   -1043.2743   -1647.2997   -1486.1773    3.6541171    99.972562    99.972562    129.99451    1299231.9    302.06491 
   48400   -59083.044   -1135.7335   -1756.0883   -1560.7318   -90.380463    99.972562    99.972562    129.99451    1299231.9    300.50069 
   48500    -59081.62   -1121.6035   -1678.6873   -1583.7807   -102.34266    99.972562    99.972562    129.99451    1299231.9    299.65545 
   48600   -59077.976   -1121.1191   -1645.2618   -1608.1357   -109.95999    99.972562    99.972562    129.99451    1299231.9    297.26607 
   48700   -59081.958   -1149.1537   -1696.4559   -1649.5242   -101.48101    99.972562    99.972562    129.99451    1299231.9    299.64728 
   48800   -59077.627   -1145.6853   -1690.3118   -1568.9096   -177.83438    99.972562    99.972562    129.99451    1299231.9     297.3024 
   48900   -59078.585   -1172.6658   -1740.6675   -1549.8342   -227.49579    99.972562    99.972562    129.99451    1299231.9    297.74965 
   49000   -59082.738   -1193.8548   -1781.1329   -1592.4633   -207.96813    99.972562    99.972562    129.99451    1299231.9    299.70359 
   49100   -59085.688   -1170.2919   -1829.7836    -1555.612   -125.47999    99.972562    99.972562    129.99451    1299231.9    301.07354 
   49200   -59086.594   -1187.3346   -1767.9007    -1569.265   -224.83797    99.972562    99.972562    129.99451    1299231.9    301.44473 
   49300   -59081.085   -1180.6962   -1755.0018   -1638.1398   -148.94705    99.972562    99.972562    129.99451    1299231.9    297.92439 
   49400   -59083.514   -1148.4182   -1748.0271   -1569.9931   -127.23447    99.972562    99.972562    129.99451    1299231.9    298.84069 
   49500   -59082.611   -1187.1034   -1796.7243    -1591.608   -172.97792    99.972562    99.972562    129.99451    1299231.9    297.85221 
   49600   -59086.629   -1173.8129    -1789.872   -1631.9886   -99.578017    99.972562    99.972562    129.99451    1299231.9    299.88618 
   49700    -59083.07   -1077.0418   -1656.5504   -1540.4735   -34.101548    99.972562    99.972562    129.99451    1299231.9    297.80835 
   49800   -59085.256   -1132.3188   -1698.0082   -1597.3896   -101.55847    99.972562    99.972562    129.99451    1299231.9    299.28912 
   49900   -59088.493   -1119.8287   -1728.1085   -1589.5737   -41.804043    99.972562    99.972562    129.99451    1299231.9    300.87835 
   50000   -59087.099   -1213.3762   -1747.1347   -1682.5703   -210.42343    99.972562    99.972562    129.99451    1299231.9    300.16648 
Loop time of 326.101 on 45 procs for 50000 steps with 13384 atoms

Performance: 13.247 ns/day, 1.812 hours/ns, 153.327 timesteps/s
59.4% CPU use with 45 MPI tasks x no OpenMP threads

MPI task timing breakdown:
Section |  min time  |  avg time  |  max time  |%varavg| %total
---------------------------------------------------------------
Pair    | 0.016727   | 79.81      | 269.8      |1141.1 | 24.47
Neigh   | 0.0012519  | 0.32549    | 1.512      |  96.3 |  0.10
Comm    | 0.29054    | 42.206     | 170.82     | 955.8 | 12.94
Output  | 1.5335     | 1.5388     | 1.5913     |   0.7 |  0.47
Modify  | 9.2738     | 191.51     | 314.15     |1056.9 | 58.73
Other   |            | 10.71      |            |       |  3.29

Nlocal:    297.422 ave 1141 max 0 min
Histogram: 27 0 5 2 2 0 0 0 0 9
Nghost:    808.378 ave 2426 max 0 min
Histogram: 27 0 0 0 0 0 0 8 6 4
Neighs:    20259.6 ave 90452 max 0 min
Histogram: 32 2 2 0 0 0 0 0 0 9

Total # of neighbors = 911684
Ave neighs/atom = 68.1175
Neighbor list builds = 396
Dangerous builds = 0

print		"run finished for a value $a"
run finished for a value 1

#undump	relax
#uncompute myT
unfix	freeze
unfix	1
unfix	2
group	myG	clear
group	subG 	clear
variable dxx	delete
variable dyy	delete
variable dzz  	delete

next a
jump in.CuZr_deposit l1

group 	       myG  id <= 0
0 atoms in group myG
read_data      myNanoP.txt add append group myG
  orthogonal box = (-49.9863 -49.9863 -19.9973) to (49.9863 49.9863 109.997)
  3 by 3 by 5 MPI processor grid
  reading atoms ...
  884 atoms
  reading velocities ...
  884 velocities
  read_data CPU = 0.0126591 secs
group          subG subtract all myG
13384 atoms in group subG

variable       dxx   equal  "v_dispX-0.5*v_BoxL"
variable       dyy   equal  "v_dispY-0.5*v_BoxL"
variable       dzz   equal  "v_a*3+50"
print "${dzz}"
56

displace_atoms myG move ${dxx} ${dyy} ${dzz} units box	#make it uniform
displace_atoms myG move -2.12434637959995 ${dyy} ${dzz} units box	
displace_atoms myG move -2.12434637959995 28.7142443749971 ${dzz} units box	
displace_atoms myG move -2.12434637959995 28.7142443749971 56 units box	
#displace_atoms myG move 0 0  50 units box		#make it uniform
reset_ids
Resetting atom IDs ...

variable	E equal 500*(1.6e-19)				#units: eV
variable	mass equal (mass(myG))*(1.6605e-27)
variable        cvel equal (-1)*(sqrt(2*${E}/${mass}))/100	#metal units: vel = 1 Angstr/ps = 100 m/s
variable        cvel equal (-1)*(sqrt(2*8e-17/${mass}))/100	
variable        cvel equal (-1)*(sqrt(2*8e-17/1.0826230851e-22))/100	
velocity        myG create 300 74657362 mom yes rot yes
velocity        myG set 0 0 ${cvel} units box
velocity        myG set 0 0 -12.1568581600967 units box

velocity        subG create 300 74657362 mom yes rot yes
set             group bottomLayer vz  0
  1261 settings made for vz
fix             freeze bottomLayer setforce NULL NULL 0.0

#compute myT 	subG temp
#thermo_modify 	temp myT

fix            1 all nve
fix            2 bottomLayer temp/berendsen 200.0 200.0 0.1
run            50000
Per MPI rank memory allocation (min/avg/max) = 0.666 | 3.091 | 4.877 Mbytes
Step PotEng Press Pxx Pyy Pzz Lx Ly Lz Volume Temp 
   50000   -62880.165   -1199.9957   -2146.8129   -2077.5447    624.37057    99.972562    99.972562    129.99451    1299231.9     543.0207 
   50100   -62908.327   -840.13349    -1875.266   -1672.7274     1027.593    99.972562    99.972562    129.99451    1299231.9    557.77093 
   50200   -62904.501   -738.51904   -1722.4474   -1636.6645    1143.5547    99.972562    99.972562    129.99451    1299231.9    555.21736 
   50300   -62906.135   -654.53751   -1613.6901   -1516.9123      1166.99    99.972562    99.972562    129.99451    1299231.9    555.86488 
   50400   -62904.487   -644.61042   -1687.8853   -1469.4127    1223.4667    99.972562    99.972562    129.99451    1299231.9    555.14883 
   50500   -62908.372   -769.28968   -1787.9567   -1586.0791    1066.1668    99.972562    99.972562    129.99451    1299231.9      557.385 
[...]
  487100   -95287.958   -523.62022   -659.38127   -915.50679    4.0273927    99.972562    99.972562    129.99451    1299231.9    341.16366 
  487200    -95288.62   -492.43571   -691.74406    -909.8885    124.32543    99.972562    99.972562    129.99451    1299231.9    340.97185 
  487300   -95296.227   -425.03838   -656.44749   -838.11143    219.44379    99.972562    99.972562    129.99451    1299231.9     343.2525 
  487400   -95294.157   -457.23585   -681.70547    -846.5688    156.56671    99.972562    99.972562    129.99451    1299231.9    342.08129 
  487500   -95282.647   -415.39818   -629.84485   -836.00507    219.65539    99.972562    99.972562    129.99451    1299231.9    337.49514 
  487600   -95290.229   -458.62942   -683.06596   -783.30624    90.483935    99.972562    99.972562    129.99451    1299231.9    339.96746 
  487700    -95292.71    -490.7031   -606.09504   -903.74627     37.73201    99.972562    99.972562    129.99451    1299231.9    340.61576 
  487800    -95290.12   -511.38713   -707.54922   -806.12207   -20.490118    99.972562    99.972562    129.99451    1299231.9    339.47465 
  487900   -95291.806   -576.55612   -656.47932   -1041.6089   -31.580084    99.972562    99.972562    129.99451    1299231.9    339.49182 
  488000   -95290.185   -607.48505   -814.72564   -966.79092   -40.938585    99.972562    99.972562    129.99451    1299231.9    338.26822 
  488100    -95294.66   -663.04887   -886.79088   -1055.6482   -46.707577    99.972562    99.972562    129.99451    1299231.9    339.47728 
  488200   -95292.297   -668.20775   -859.98107   -1093.0787   -51.563452    99.972562    99.972562    129.99451    1299231.9    338.39581 
  488300   -95301.598   -738.72278   -833.73778   -1164.1315   -218.29908    99.972562    99.972562    129.99451    1299231.9    341.60996 
  488400   -95290.409   -705.90035   -785.23782   -1192.4263   -140.03696    99.972562    99.972562    129.99451    1299231.9    337.04683 
  488500   -95293.558   -643.42464   -814.39763   -953.54122   -162.33508    99.972562    99.972562    129.99451    1299231.9    337.93434 
  488600   -95293.978   -689.45589   -882.43264   -1051.4721   -134.46295    99.972562    99.972562    129.99451    1299231.9    337.73848 
  488700   -95297.371    -721.4969   -935.59104   -1009.2304   -219.66926    99.972562    99.972562    129.99451    1299231.9    338.68091 
  488800   -95297.197   -772.51316   -980.18565   -1158.4582   -178.89564    99.972562    99.972562    129.99451    1299231.9    338.25958 
  488900   -95295.026   -744.25086   -929.91251   -1177.3767    -125.4634    99.972562    99.972562    129.99451    1299231.9    337.38952 
  489000   -95296.962   -748.35293   -984.29865   -1148.2724   -112.48778    99.972562    99.972562    129.99451    1299231.9    337.85553 
  489100   -95302.425   -717.39098   -913.58263   -1129.1652   -109.42507    99.972562    99.972562    129.99451    1299231.9    339.26833 
  489200   -95302.666   -723.91201    -1002.666   -1039.2536    -129.8164    99.972562    99.972562    129.99451    1299231.9    338.95468 
  489300   -95298.303   -613.17673   -769.04116   -957.25741   -113.23161    99.972562    99.972562    129.99451    1299231.9    336.78085 
  489400   -95292.879   -595.65549   -685.16368   -976.01741   -125.78539    99.972562    99.972562    129.99451    1299231.9    334.41933 
  489500   -95307.593    -599.6472   -747.03283   -950.01789   -101.89087    99.972562    99.972562    129.99451    1299231.9    339.67005 
  489600   -95305.106   -548.49264   -694.31481   -976.52193    25.358819    99.972562    99.972562    129.99451    1299231.9     338.6236 
  489700    -95304.37   -530.67445   -750.82498   -924.69838    83.500006    99.972562    99.972562    129.99451    1299231.9    337.96382 
  489800   -95308.389   -574.22482   -824.04453   -867.96467   -30.665268    99.972562    99.972562    129.99451    1299231.9    339.07596 
  489900   -95309.488   -606.63244   -904.96309   -870.80511   -44.129136    99.972562    99.972562    129.99451    1299231.9    339.16898 
  490000   -95300.006   -553.94982   -771.65686   -895.40372    5.2111066    99.972562    99.972562    129.99451    1299231.9    335.45068 
  490100   -95305.515   -510.91486   -749.01139   -877.42633    93.693137    99.972562    99.972562    129.99451    1299231.9    337.11982 
  490200   -95308.865   -527.58354   -761.33567   -939.30932    117.89437    99.972562    99.972562    129.99451    1299231.9    338.19247 
  490300   -95303.228   -591.43487   -718.32193   -1011.1018   -44.880915    99.972562    99.972562    129.99451    1299231.9    335.78931 
  490400   -95308.364   -497.72285   -608.58052   -912.28726    27.699226    99.972562    99.972562    129.99451    1299231.9    337.12783 
  490500   -95308.138   -449.40879   -612.02682   -824.36967    88.170116    99.972562    99.972562    129.99451    1299231.9    336.80925 
  490600   -95302.919   -448.79051   -710.43619   -869.81009    233.87476    99.972562    99.972562    129.99451    1299231.9    334.34896 
  490700   -95303.728   -387.82571   -603.39303   -859.40229    299.31818    99.972562    99.972562    129.99451    1299231.9    334.13129 
  490800   -95312.783    -446.0436   -691.60492   -833.31391    186.78801    99.972562    99.972562    129.99451    1299231.9    336.99405 
  490900    -95312.68   -503.30306   -860.09812   -886.80891    236.99786    99.972562    99.972562    129.99451    1299231.9    336.55159 
  491000   -95307.141    -586.2588   -834.05011   -940.09768    15.371407    99.972562    99.972562    129.99451    1299231.9    333.94599 
  491100    -95312.64   -568.01013   -762.50282   -889.47965   -52.047918    99.972562    99.972562    129.99451    1299231.9      335.604 
  491200   -95314.195   -634.21474   -897.43867   -975.02848   -30.177068    99.972562    99.972562    129.99451    1299231.9    335.65553 
  491300   -95311.298   -609.24566   -834.32127   -947.92219   -45.493516    99.972562    99.972562    129.99451    1299231.9    334.19177 
  491400   -95310.728   -646.54527    -934.6301   -932.57675   -72.428953    99.972562    99.972562    129.99451    1299231.9    333.36165 
  491500   -95315.859   -697.00564   -814.00895    -1134.171   -142.83697    99.972562    99.972562    129.99451    1299231.9    334.75115 
  491600     -95319.9    -724.7607    -924.2264   -1084.9438   -165.11187    99.972562    99.972562    129.99451    1299231.9    335.90123 
  491700   -95306.936   -717.88307   -1030.6852   -1101.7965   -21.167483    99.972562    99.972562    129.99451    1299231.9    331.14872 
  491800   -95316.545   -753.27958   -902.22429   -1152.5066   -205.10784    99.972562    99.972562    129.99451    1299231.9    334.37613 
  491900   -95309.363   -719.69148   -868.54291   -1101.8843   -188.64722    99.972562    99.972562    129.99451    1299231.9     331.5364 
  492000   -95311.508   -671.97854   -834.87216    -1079.475   -101.58852    99.972562    99.972562    129.99451    1299231.9    331.80124 
  492100   -95316.719   -622.79201   -802.57129   -1009.9781   -55.826661    99.972562    99.972562    129.99451    1299231.9    333.39017 
  492200   -95315.817   -734.44964   -729.37942   -1232.0286   -241.94096    99.972562    99.972562    129.99451    1299231.9    332.68642 
  492300    -95322.23   -812.62806   -902.49549   -1112.0082   -423.38045    99.972562    99.972562    129.99451    1299231.9    334.55525 
  492400   -95312.925    -798.1018   -1020.6522   -1153.0271    -220.6261    99.972562    99.972562    129.99451    1299231.9    330.61027 
  492500   -95317.496   -854.75095   -1093.2215   -1272.9669   -198.06443    99.972562    99.972562    129.99451    1299231.9    331.97361 
  492600   -95317.339   -858.11585   -1044.7106    -1245.392   -284.24496    99.972562    99.972562    129.99451    1299231.9    331.86812 
  492700   -95314.679   -731.50021   -982.00194   -1073.1229   -139.37583    99.972562    99.972562    129.99451    1299231.9    330.85761 
  492800    -95315.81   -640.48819   -886.99553   -1036.1721    1.7030701    99.972562    99.972562    129.99451    1299231.9    331.05633 
  492900   -95323.317     -564.488   -768.59487   -1011.3807    86.511547    99.972562    99.972562    129.99451    1299231.9    333.59438 
  493000   -95319.674   -623.69598   -848.90603   -1063.5748    41.392948    99.972562    99.972562    129.99451    1299231.9    332.04784 
  493100   -95320.464   -604.41416   -787.16362   -1007.6123   -18.466563    99.972562    99.972562    129.99451    1299231.9     332.0647 
  493200   -95316.323   -480.61744   -649.10881   -861.33072    68.587219    99.972562    99.972562    129.99451    1299231.9    330.07885 
  493300   -95324.298    -483.7921   -769.32334   -918.05336     236.0004    99.972562    99.972562    129.99451    1299231.9    332.40186 
  493400   -95321.785   -514.13062   -700.73398   -1019.8591    178.20119    99.972562    99.972562    129.99451    1299231.9    331.24559 
  493500   -95326.319   -487.16494   -720.14837   -914.59619    173.24974    99.972562    99.972562    129.99451    1299231.9    332.73622 
  493600    -95326.01   -566.70736   -868.58584   -898.77655    67.240296    99.972562    99.972562    129.99451    1299231.9    332.19342 
  493700   -95324.928   -550.27856   -788.01444   -910.43069    47.609456    99.972562    99.972562    129.99451    1299231.9    331.61071 
  493800   -95319.813   -465.11755   -602.57984   -856.95885    64.186035    99.972562    99.972562    129.99451    1299231.9    329.37846 
  493900   -95327.706   -467.49446   -638.03412   -877.88048     113.4312    99.972562    99.972562    129.99451    1299231.9    331.65682 
  494000   -95324.097   -502.61353   -645.97904   -958.61991     96.75836    99.972562    99.972562    129.99451    1299231.9    329.87519 
  494100   -95329.518   -499.52071   -613.94246   -969.36726    84.747604    99.972562    99.972562    129.99451    1299231.9    331.49023 
  494200   -95323.063   -461.12224   -610.86252   -897.69083    125.18664    99.972562    99.972562    129.99451    1299231.9    328.73455 
  494300   -95329.401   -459.46179   -558.59984   -926.52172    106.73618    99.972562    99.972562    129.99451    1299231.9    330.72353 
  494400   -95326.684   -548.65831   -624.58367   -1027.9846    6.5933563    99.972562    99.972562    129.99451    1299231.9    329.25187 
  494500   -95325.607   -549.18676   -776.42114   -898.42173    27.282585    99.972562    99.972562    129.99451    1299231.9    328.53243 
  494600   -95332.632   -651.17693   -907.45072   -1014.3179   -31.762164    99.972562    99.972562    129.99451    1299231.9    330.90181 
  494700   -95330.536    -670.7319   -921.05704   -1105.2601      14.1214    99.972562    99.972562    129.99451    1299231.9    330.21573 
  494800   -95334.605   -636.59437     -887.695   -974.87865   -47.209472    99.972562    99.972562    129.99451    1299231.9    331.40934 
  494900   -95329.695   -650.22078   -894.64978   -1035.9284   -20.084149    99.972562    99.972562    129.99451    1299231.9    329.17579 
  495000   -95334.349   -608.00863   -794.28237   -972.52936   -57.214159    99.972562    99.972562    129.99451    1299231.9    330.34719 
  495100   -95336.372   -699.19024    -925.8988   -1083.9076   -87.764344    99.972562    99.972562    129.99451    1299231.9    330.88823 
  495200   -95324.018   -733.12001    -879.7032   -1110.4432   -209.21358    99.972562    99.972562    129.99451    1299231.9    326.45862 
  495300   -95332.152   -732.40281   -783.64187    -1218.986   -194.58056    99.972562    99.972562    129.99451    1299231.9    329.38202 
  495400    -95330.48   -711.16418   -804.14884   -1131.3606   -197.98306    99.972562    99.972562    129.99451    1299231.9    328.57434 
  495500   -95329.223   -699.28887   -916.61796   -1111.6434   -69.605252    99.972562    99.972562    129.99451    1299231.9    328.06415 
  495600   -95332.987   -759.65768   -985.53676   -1152.9222   -140.51403    99.972562    99.972562    129.99451    1299231.9    328.92497 
  495700   -95327.451   -738.95627   -864.53045   -1232.7487   -119.58965    99.972562    99.972562    129.99451    1299231.9    326.35132 
  495800   -95337.623   -775.73621   -1002.6744   -1166.1897   -158.34446    99.972562    99.972562    129.99451    1299231.9    329.57789 
  495900   -95331.982   -725.50223    -1040.876   -1044.2893   -91.341375    99.972562    99.972562    129.99451    1299231.9    327.24722 
  496000   -95336.647   -785.43825   -937.32414   -1165.0978   -253.89278    99.972562    99.972562    129.99451    1299231.9    328.29751 
  496100   -95338.671   -741.37689   -882.44504   -1145.6117   -196.07391    99.972562    99.972562    129.99451    1299231.9    328.65918 
  496200     -95337.6   -768.27158    -1055.473   -1221.5869   -27.754796    99.972562    99.972562    129.99451    1299231.9    327.98547 
  496300    -95337.16   -745.63842   -974.55997   -1209.2204   -53.134874    99.972562    99.972562    129.99451    1299231.9      327.603 
  496400   -95339.746   -616.23288   -857.49845     -991.379   0.17881945    99.972562    99.972562    129.99451    1299231.9    327.92212 
  496500    -95337.53   -492.22141   -794.92466   -852.54004    170.80046    99.972562    99.972562    129.99451    1299231.9    326.86087 
  496600   -95342.569   -560.15034   -783.12475   -922.16744    24.841176    99.972562    99.972562    129.99451    1299231.9    328.12042 
  496700   -95341.405   -487.64714   -767.00897   -878.57756    182.64512    99.972562    99.972562    129.99451    1299231.9    327.41271 
  496800   -95344.376   -525.91113   -792.87052   -942.11694    157.25407    99.972562    99.972562    129.99451    1299231.9    328.20461 
  496900   -95336.807   -567.52281   -799.95154   -1040.1768    137.55985    99.972562    99.972562    129.99451    1299231.9    325.08801 
  497000   -95342.215   -654.84653   -863.58479   -1088.0447   -12.910132    99.972562    99.972562    129.99451    1299231.9    326.78349 
  497100   -95336.156   -546.92765   -812.57814   -969.03336    140.82856    99.972562    99.972562    129.99451    1299231.9    324.19773 
  497200   -95344.016   -551.81765   -730.64523   -928.71722    3.9095024    99.972562    99.972562    129.99451    1299231.9    326.78778 
  497300   -95347.306   -558.11052   -808.05616   -961.71956    95.444171    99.972562    99.972562    129.99451    1299231.9     327.8316 
  497400   -95341.014   -575.14093   -765.01669   -968.75054    8.3444442    99.972562    99.972562    129.99451    1299231.9    325.38461 
  497500   -95336.514   -617.84379   -873.91299   -1008.5274    28.909035    99.972562    99.972562    129.99451    1299231.9    323.64571 
  497600   -95345.609   -662.58847    -843.7458   -1058.0157   -86.003936    99.972562    99.972562    129.99451    1299231.9    326.88705 
  497700   -95342.913   -562.09457    -802.9499   -977.32085    93.987037    99.972562    99.972562    129.99451    1299231.9    325.89134 
  497800   -95340.446   -546.06154   -837.34117   -913.65837    112.81493    99.972562    99.972562    129.99451    1299231.9    324.77578 
  497900   -95349.058   -684.99211   -921.54039   -1027.7157   -105.72021    99.972562    99.972562    129.99451    1299231.9    327.50647 
  498000   -95347.406    -673.8689   -1003.3339   -1101.3237    83.050959    99.972562    99.972562    129.99451    1299231.9      326.604 
  498100    -95350.15   -606.06649   -730.54844   -1061.4583   -26.192685    99.972562    99.972562    129.99451    1299231.9    327.26137 
  498200   -95340.726   -596.27686   -787.38272   -967.82669   -33.621177    99.972562    99.972562    129.99451    1299231.9    323.24435 
  498300   -95351.701   -707.73085   -854.40123   -1150.4683   -118.32297    99.972562    99.972562    129.99451    1299231.9    326.70787 
  498400   -95347.447   -639.99365   -849.61532   -1039.8996    -30.46602    99.972562    99.972562    129.99451    1299231.9    325.12787 
  498500   -95351.757   -625.27986   -829.58752   -1072.8954    26.643307    99.972562    99.972562    129.99451    1299231.9    326.38284 
  498600   -95347.658    -705.5441   -1000.4692   -1050.6648   -65.498315    99.972562    99.972562    129.99451    1299231.9    324.68967 
  498700   -95350.231   -829.68415   -1089.7454   -1172.2125   -227.09459    99.972562    99.972562    129.99451    1299231.9    325.44087 
  498800   -95348.177   -712.19314   -884.76748   -1127.8479   -123.96403    99.972562    99.972562    129.99451    1299231.9    324.28734 
  498900   -95350.243   -668.05836   -841.27389   -1193.7852    30.884003    99.972562    99.972562    129.99451    1299231.9    324.86394 
  499000   -95350.662   -687.03123   -862.60098   -1146.8901   -51.602562    99.972562    99.972562    129.99451    1299231.9    324.64662 
  499100   -95350.125   -634.87988    -891.0607   -1086.5344    72.955419    99.972562    99.972562    129.99451    1299231.9    324.28593 
  499200   -95344.959   -678.86434   -894.24724   -1028.0311   -114.31472    99.972562    99.972562    129.99451    1299231.9    322.19245 
  499300   -95353.822   -770.10764   -1015.5168   -1125.2561   -169.54998    99.972562    99.972562    129.99451    1299231.9    325.11014 
  499400   -95354.155   -804.81176   -953.24192   -1236.3857   -224.80768    99.972562    99.972562    129.99451    1299231.9    324.77875 
  499500     -95352.3   -774.35402   -966.39056      -1186.2   -170.47145    99.972562    99.972562    129.99451    1299231.9      323.829 
  499600   -95352.042   -808.04129   -1021.4037   -1254.1117   -148.60843    99.972562    99.972562    129.99451    1299231.9    323.70005 
  499700   -95354.514   -788.88578   -921.29383   -1220.8922   -224.47129    99.972562    99.972562    129.99451    1299231.9    324.15165 
  499800    -95354.79   -785.65287   -928.04762   -1218.6878   -210.22323    99.972562    99.972562    129.99451    1299231.9    323.98355 
  499900   -95356.135   -736.29793   -891.06537   -1183.6938   -134.13459    99.972562    99.972562    129.99451    1299231.9    324.47619 
  500000   -95344.357   -654.04698   -785.45813   -1039.4129   -137.26987    99.972562    99.972562    129.99451    1299231.9    320.08716 
Loop time of 353.625 on 45 procs for 50000 steps with 21340 atoms

Performance: 12.216 ns/day, 1.965 hours/ns, 141.393 timesteps/s
63.9% CPU use with 45 MPI tasks x no OpenMP threads

MPI task timing breakdown:
Section |  min time  |  avg time  |  max time  |%varavg| %total
---------------------------------------------------------------
Pair    | 0.02004    | 134.9      | 288.55     |1010.6 | 38.15
Neigh   | 0.0015092  | 0.6183     | 1.7466     |  96.6 |  0.17
Comm    | 0.26647    | 40.227     | 165.7      | 642.5 | 11.38
Output  | 1.5384     | 1.5429     | 1.6105     |   0.8 |  0.44
Modify  | 3.3896     | 168.82     | 344.24     |1149.6 | 47.74
Other   |            | 7.526      |            |       |  2.13

Nlocal:    474.222 ave 1542 max 0 min
Histogram: 27 0 0 0 0 1 0 12 4 1
Nghost:    1193.6 ave 3077 max 0 min
Histogram: 25 2 0 0 0 0 0 0 3 15
Neighs:    34141.4 ave 102351 max 0 min
Histogram: 27 0 0 0 0 1 1 4 9 3

Total # of neighbors = 1536365
Ave neighs/atom = 71.9946
Neighbor list builds = 429
Dangerous builds = 0

print		"run finished for a value $a"
run finished for a value 10

#undump	relax
#uncompute myT
unfix	freeze
unfix	1
unfix	2
group	myG	clear
group	subG 	clear
variable dxx	delete
variable dyy	delete
variable dzz  	delete

next a
jump in.CuZr_deposit l1

fix 		r1 all ave/time 1 1 1 c_prdf11[*] c_prdf22[*] c_rdf[*] c_bulk_rdf[*] file data/rdf_0GPa.rdf mode vector
run		0 pre yes post no
Per MPI rank memory allocation (min/avg/max) = 2.253 | 5.604 | 8.375 Mbytes
Step PotEng Press Pxx Pyy Pzz Lx Ly Lz Volume Temp 
  500000   -95344.357   -654.04698   -785.45813   -1039.4129   -137.26987    99.972562    99.972562    129.99451    1299231.9    320.08716 
Loop time of 0.000125959 on 45 procs for 0 steps with 21340 atoms

Total wall time: 0:55:12
